+ 0.005001 /NodeList/0/DeviceList/0/$ns3::CsmaNetDevice/TxQueue/Enqueue ns3::EthernetHeader ( length/type=0x800, source=00:00:00:00:00:31, destination=00:00:00:00:00:35) ns3::Ipv4Header (tos 0x0 DSCP Default ECN Not-ECT ttl 64 id 0 protocol 17 offset (bytes) 0 flags [none] length: 60 10.1.1.1 > 10.1.1.5) ns3::UdpHeader (length: 40 49153 > 1) Payload (size=32) ns3::EthernetTrailer (fcs=0)
- 0.005001 /NodeList/0/DeviceList/0/$ns3::CsmaNetDevice/TxQueue/Dequeue ns3::EthernetHeader ( length/type=0x800, source=00:00:00:00:00:31, destination=00:00:00:00:00:35) ns3::Ipv4Header (tos 0x0 DSCP Default ECN Not-ECT ttl 64 id 0 protocol 17 offset (bytes) 0 flags [none] length: 60 10.1.1.1 > 10.1.1.5) ns3::UdpHeader (length: 40 49153 > 1) Payload (size=32) ns3::EthernetTrailer (fcs=0)
+ 0.010002 /NodeList/6/DeviceList/0/$ns3::CsmaNetDevice/TxQueue/Enqueue ns3::EthernetHeader ( length/type=0x800, source=00:00:00:00:00:37, destination=00:00:00:00:00:33) ns3::Ipv4Header (tos 0x0 DSCP Default ECN Not-ECT ttl 64 id 0 protocol 17 offset (bytes) 0 flags [none] length: 60 10.1.1.7 > 10.1.1.3) ns3::UdpHeader (length: 40 49153 > 3) Payload (size=32) ns3::EthernetTrailer (fcs=0)
- 0.010002 /NodeList/6/DeviceList/0/$ns3::CsmaNetDevice/TxQueue/Dequeue ns3::EthernetHeader ( length/type=0x800, source=00:00:00:00:00:37, destination=00:00:00:00:00:33) ns3::Ipv4Header (tos 0x0 DSCP Default ECN Not-ECT ttl 64 id 0 protocol 17 offset (bytes) 0 flags [none] length: 60 10.1.1.7 > 10.1.1.3) ns3::UdpHeader (length: 40 49153 > 3) Payload (size=32) ns3::EthernetTrailer (fcs=0)
r 0.0126124 /NodeList/2/DeviceList/0/$ns3::CsmaNetDevice/MacRx ns3::EthernetHeader ( length/type=0x800, source=00:00:00:00:00:37, destination=00:00:00:00:00:33) ns3::Ipv4Header (tos 0x0 DSCP Default ECN Not-ECT ttl 64 id 0 protocol 17 offset (bytes) 0 flags [none] length: 60 10.1.1.7 > 10.1.1.3) ns3::UdpHeader (length: 40 49153 > 3) Payload (size=32) ns3::EthernetTrailer (fcs=0)
+ 0.017635 /NodeList/1/DeviceList/0/$ns3::CsmaNetDevice/TxQueue/Enqueue ns3::EthernetHeader ( length/type=0x800, source=00:00:00:00:00:32, destination=00:00:00:00:00:36) ns3::Ipv4Header (tos 0x0 DSCP Default ECN Not-ECT ttl 64 id 0 protocol 17 offset (bytes) 0 flags [none] length: 60 10.1.1.2 > 10.1.1.6) ns3::UdpHeader (length: 40 49153 > 2) Payload (size=32) ns3::EthernetTrailer (fcs=0)
- 0.017635 /NodeList/1/DeviceList/0/$ns3::CsmaNetDevice/TxQueue/Dequeue ns3::EthernetHeader ( length/type=0x800, source=00:00:00:00:00:32, destination=00:00:00:00:00:36) ns3::Ipv4Header (tos 0x0 DSCP Default ECN Not-ECT ttl 64 id 0 protocol 17 offset (bytes) 0 flags [none] length: 60 10.1.1.2 > 10.1.1.6) ns3::UdpHeader (length: 40 49153 > 2) Payload (size=32) ns3::EthernetTrailer (fcs=0)
r 0.0202454 /NodeList/5/DeviceList/0/$ns3::CsmaNetDevice/MacRx ns3::EthernetHeader ( length/type=0x800, source=00:00:00:00:00:32, destination=00:00:00:00:00:36) ns3::Ipv4Header (tos 0x0 DSCP Default ECN Not-ECT ttl 64 id 0 protocol 17 offset (bytes) 0 flags [none] length: 60 10.1.1.2 > 10.1.1.6) ns3::UdpHeader (length: 40 49153 > 2) Payload (size=32) ns3::EthernetTrailer (fcs=0)
+ 0.0255184 /NodeList/2/DeviceList/0/$ns3::CsmaNetDevice/TxQueue/Enqueue ns3::EthernetHeader ( length/type=0x800, source=00:00:00:00:00:33, destination=00:00:00:00:00:37) ns3::Ipv4Header (tos 0x0 DSCP Default ECN Not-ECT ttl 64 id 0 protocol 17 offset (bytes) 0 flags [none] length: 60 10.1.1.3 > 10.1.1.7) ns3::UdpHeader (length: 40 3 > 49153) Payload (size=32) ns3::EthernetTrailer (fcs=0)
- 0.0255184 /NodeList/2/DeviceList/0/$ns3::CsmaNetDevice/TxQueue/Dequeue ns3::EthernetHeader ( length/type=0x800, source=00:00:00:00:00:33, destination=00:00:00:00:00:37) ns3::Ipv4Header (tos 0x0 DSCP Default ECN Not-ECT ttl 64 id 0 protocol 17 offset (bytes) 0 flags [none] length: 60 10.1.1.3 > 10.1.1.7) ns3::UdpHeader (length: 40 3 > 49153) Payload (size=32) ns3::EthernetTrailer (fcs=0)
r 0.0281287 /NodeList/6/DeviceList/0/$ns3::CsmaNetDevice/MacRx ns3::EthernetHeader ( length/type=0x800, source=00:00:00:00:00:33, destination=00:00:00:00:00:37) ns3::Ipv4Header (tos 0x0 DSCP Default ECN Not-ECT ttl 64 id 0 protocol 17 offset (bytes) 0 flags [none] length: 60 10.1.1.3 > 10.1.1.7) ns3::UdpHeader (length: 40 3 > 49153) Payload (size=32) ns3::EthernetTrailer (fcs=0)
+ 0.03125 /NodeList/0/DeviceList/0/$ns3::CsmaNetDevice/TxQueue/Enqueue ns3::EthernetHeader ( length/type=0x800, source=00:00:00:00:00:31, destination=00:00:00:00:00:35) ns3::Ipv4Header (tos 0x0 DSCP Default ECN Not-ECT ttl 64 id 1 protocol 17 offset (bytes) 0 flags [none] length: 60 10.1.1.1 > 10.1.1.5) ns3::UdpHeader (length: 40 49153 > 1) Payload (size=32) ns3::EthernetTrailer (fcs=0)
+ 0.03125 /NodeList/1/DeviceList/0/$ns3::CsmaNetDevice/TxQueue/Enqueue ns3::EthernetHeader ( length/type=0x800, source=00:00:00:00:00:32, destination=00:00:00:00:00:36) ns3::Ipv4Header (tos 0x0 DSCP Default ECN Not-ECT ttl 64 id 1 protocol 17 offset (bytes) 0 flags [none] length: 60 10.1.1.2 > 10.1.1.6) ns3::UdpHeader (length: 40 49153 > 2) Payload (size=32) ns3::EthernetTrailer (fcs=0)
- 0.03125 /NodeList/1/DeviceList/0/$ns3::CsmaNetDevice/TxQueue/Dequeue ns3::EthernetHeader ( length/type=0x800, source=00:00:00:00:00:32, destination=00:00:00:00:00:36) ns3::Ipv4Header (tos 0x0 DSCP Default ECN Not-ECT ttl 64 id 1 protocol 17 offset (bytes) 0 flags [none] length: 60 10.1.1.2 > 10.1.1.6) ns3::UdpHeader (length: 40 49153 > 2) Payload (size=32) ns3::EthernetTrailer (fcs=0)
+ 0.03125 /NodeList/6/DeviceList/0/$ns3::CsmaNetDevice/TxQueue/Enqueue ns3::EthernetHeader ( length/type=0x800, source=00:00:00:00:00:37, destination=00:00:00:00:00:33) ns3::Ipv4Header (tos 0x0 DSCP Default ECN Not-ECT ttl 64 id 1 protocol 17 offset (bytes) 0 flags [none] length: 60 10.1.1.7 > 10.1.1.3) ns3::UdpHeader (length: 40 49153 > 3) Payload (size=32) ns3::EthernetTrailer (fcs=0)
- 0.03125 /NodeList/6/DeviceList/0/$ns3::CsmaNetDevice/TxQueue/Dequeue ns3::EthernetHeader ( length/type=0x800, source=00:00:00:00:00:37, destination=00:00:00:00:00:33) ns3::Ipv4Header (tos 0x0 DSCP Default ECN Not-ECT ttl 64 id 1 protocol 17 offset (bytes) 0 flags [none] length: 60 10.1.1.7 > 10.1.1.3) ns3::UdpHeader (length: 40 49153 > 3) Payload (size=32) ns3::EthernetTrailer (fcs=0)
+ 0.03339 /NodeList/7/DeviceList/0/$ns3::CsmaNetDevice/TxQueue/Enqueue ns3::EthernetHeader ( length/type=0x800, source=00:00:00:00:00:38, destination=00:00:00:00:00:34) ns3::Ipv4Header (tos 0x0 DSCP Default ECN Not-ECT ttl 64 id 0 protocol 17 offset (bytes) 0 flags [none] length: 60 10.1.1.8 > 10.1.1.4) ns3::UdpHeader (length: 40 49153 > 4) Payload (size=32) ns3::EthernetTrailer (fcs=0)
- 0.03339 /NodeList/7/DeviceList/0/$ns3::CsmaNetDevice/TxQueue/Dequeue ns3::EthernetHeader ( length/type=0x800, source=00:00:00:00:00:38, destination=00:00:00:00:00:34) ns3::Ipv4Header (tos 0x0 DSCP Default ECN Not-ECT ttl 64 id 0 protocol 17 offset (bytes) 0 flags [none] length: 60 10.1.1.8 > 10.1.1.4) ns3::UdpHeader (length: 40 49153 > 4) Payload (size=32) ns3::EthernetTrailer (fcs=0)
+ 0.03339 /NodeList/7/DeviceList/0/$ns3::CsmaNetDevice/TxQueue/Enqueue ns3::EthernetHeader ( length/type=0x800, source=00:00:00:00:00:38, destination=00:00:00:00:00:34) ns3::Ipv4Header (tos 0x0 DSCP Default ECN Not-ECT ttl 64 id 1 protocol 17 offset (bytes) 0 flags [none] length: 60 10.1.1.8 > 10.1.1.4) ns3::UdpHeader (length: 40 49153 > 4) Payload (size=32) ns3::EthernetTrailer (fcs=0)
- 0.0340941 /NodeList/7/DeviceList/0/$ns3::CsmaNetDevice/TxQueue/Dequeue ns3::EthernetHeader ( length/type=0x800, source=00:00:00:00:00:38, destination=00:00:00:00:00:34) ns3::Ipv4Header (tos 0x0 DSCP Default ECN Not-ECT ttl 64 id 1 protocol 17 offset (bytes) 0 flags [none] length: 60 10.1.1.8 > 10.1.1.4) ns3::UdpHeader (length: 40 49153 > 4) Payload (size=32) ns3::EthernetTrailer (fcs=0)
r 0.0360004 /NodeList/3/DeviceList/0/$ns3::CsmaNetDevice/MacRx ns3::EthernetHeader ( length/type=0x800, source=00:00:00:00:00:38, destination=00:00:00:00:00:34) ns3::Ipv4Header (tos 0x0 DSCP Default ECN Not-ECT ttl 64 id 0 protocol 17 offset (bytes) 0 flags [none] length: 60 10.1.1.8 > 10.1.1.4) ns3::UdpHeader (length: 40 49153 > 4) Payload (size=32) ns3::EthernetTrailer (fcs=0)
- 0.0392571 /NodeList/0/DeviceList/0/$ns3::CsmaNetDevice/TxQueue/Dequeue ns3::EthernetHeader ( length/type=0x800, source=00:00:00:00:00:31, destination=00:00:00:00:00:35) ns3::Ipv4Header (tos 0x0 DSCP Default ECN Not-ECT ttl 64 id 1 protocol 17 offset (bytes) 0 flags [none] length: 60 10.1.1.1 > 10.1.1.5) ns3::UdpHeader (length: 40 49153 > 1) Payload (size=32) ns3::EthernetTrailer (fcs=0)
r 0.0411634 /NodeList/4/DeviceList/0/$ns3::CsmaNetDevice/MacRx ns3::EthernetHeader ( length/type=0x800, source=00:00:00:00:00:31, destination=00:00:00:00:00:35) ns3::Ipv4Header (tos 0x0 DSCP Default ECN Not-ECT ttl 64 id 0 protocol 17 offset (bytes) 0 flags [none] length: 60 10.1.1.1 > 10.1.1.5) ns3::UdpHeader (length: 40 49153 > 1) Payload (size=32) ns3::EthernetTrailer (fcs=0)
r 0.0438764 /NodeList/2/DeviceList/0/$ns3::CsmaNetDevice/MacRx ns3::EthernetHeader ( length/type=0x800, source=00:00:00:00:00:37, destination=00:00:00:00:00:33) ns3::Ipv4Header (tos 0x0 DSCP Default ECN Not-ECT ttl 64 id 1 protocol 17 offset (bytes) 0 flags [none] length: 60 10.1.1.7 > 10.1.1.3) ns3::UdpHeader (length: 40 49153 > 3) Payload (size=32) ns3::EthernetTrailer (fcs=0)
+ 0.0438764 /NodeList/2/DeviceList/0/$ns3::CsmaNetDevice/TxQueue/Enqueue ns3::EthernetHeader ( length/type=0x800, source=00:00:00:00:00:33, destination=00:00:00:00:00:37) ns3::Ipv4Header (tos 0x0 DSCP Default ECN Not-ECT ttl 64 id 1 protocol 17 offset (bytes) 0 flags [none] length: 60 10.1.1.3 > 10.1.1.7) ns3::UdpHeader (length: 40 3 > 49153) Payload (size=32) ns3::EthernetTrailer (fcs=0)
- 0.0438764 /NodeList/2/DeviceList/0/$ns3::CsmaNetDevice/TxQueue/Dequeue ns3::EthernetHeader ( length/type=0x800, source=00:00:00:00:00:33, destination=00:00:00:00:00:37) ns3::Ipv4Header (tos 0x0 DSCP Default ECN Not-ECT ttl 64 id 1 protocol 17 offset (bytes) 0 flags [none] length: 60 10.1.1.3 > 10.1.1.7) ns3::UdpHeader (length: 40 3 > 49153) Payload (size=32) ns3::EthernetTrailer (fcs=0)
r 0.0464857 /NodeList/6/DeviceList/0/$ns3::CsmaNetDevice/MacRx ns3::EthernetHeader ( length/type=0x800, source=00:00:00:00:00:33, destination=00:00:00:00:00:37) ns3::Ipv4Header (tos 0x0 DSCP Default ECN Not-ECT ttl 64 id 1 protocol 17 offset (bytes) 0 flags [none] length: 60 10.1.1.3 > 10.1.1.7) ns3::UdpHeader (length: 40 3 > 49153) Payload (size=32) ns3::EthernetTrailer (fcs=0)
r 0.0493154 /NodeList/5/DeviceList/0/$ns3::CsmaNetDevice/MacRx ns3::EthernetHeader ( length/type=0x800, source=00:00:00:00:00:32, destination=00:00:00:00:00:36) ns3::Ipv4Header (tos 0x0 DSCP Default ECN Not-ECT ttl 64 id 1 protocol 17 offset (bytes) 0 flags [none] length: 60 10.1.1.2 > 10.1.1.6) ns3::UdpHeader (length: 40 49153 > 2) Payload (size=32) ns3::EthernetTrailer (fcs=0)
r 0.0519435 /NodeList/3/DeviceList/0/$ns3::CsmaNetDevice/MacRx ns3::EthernetHeader ( length/type=0x800, source=00:00:00:00:00:38, destination=00:00:00:00:00:34) ns3::Ipv4Header (tos 0x0 DSCP Default ECN Not-ECT ttl 64 id 1 protocol 17 offset (bytes) 0 flags [none] length: 60 10.1.1.8 > 10.1.1.4) ns3::UdpHeader (length: 40 49153 > 4) Payload (size=32) ns3::EthernetTrailer (fcs=0)
+ 0.0569814 /NodeList/5/DeviceList/0/$ns3::CsmaNetDevice/TxQueue/Enqueue ns3::EthernetHeader ( length/type=0x800, source=00:00:00:00:00:36, destination=00:00:00:00:00:32) ns3::Ipv4Header (tos 0x0 DSCP Default ECN Not-ECT ttl 64 id 0 protocol 17 offset (bytes) 0 flags [none] length: 60 10.1.1.6 > 10.1.1.2) ns3::UdpHeader (length: 40 2 > 49153) Payload (size=32) ns3::EthernetTrailer (fcs=0)
- 0.0569814 /NodeList/5/DeviceList/0/$ns3::CsmaNetDevice/TxQueue/Dequeue ns3::EthernetHeader ( length/type=0x800, source=00:00:00:00:00:36, destination=00:00:00:00:00:32) ns3::Ipv4Header (tos 0x0 DSCP Default ECN Not-ECT ttl 64 id 0 protocol 17 offset (bytes) 0 flags [none] length: 60 10.1.1.6 > 10.1.1.2) ns3::UdpHeader (length: 40 2 > 49153) Payload (size=32) ns3::EthernetTrailer (fcs=0)
+ 0.0569814 /NodeList/5/DeviceList/0/$ns3::CsmaNetDevice/TxQueue/Enqueue ns3::EthernetHeader ( length/type=0x800, source=00:00:00:00:00:36, destination=00:00:00:00:00:32) ns3::Ipv4Header (tos 0x0 DSCP Default ECN Not-ECT ttl 64 id 1 protocol 17 offset (bytes) 0 flags [none] length: 60 10.1.1.6 > 10.1.1.2) ns3::UdpHeader (length: 40 2 > 49153) Payload (size=32) ns3::EthernetTrailer (fcs=0)
- 0.0576855 /NodeList/5/DeviceList/0/$ns3::CsmaNetDevice/TxQueue/Dequeue ns3::EthernetHeader ( length/type=0x800, source=00:00:00:00:00:36, destination=00:00:00:00:00:32) ns3::Ipv4Header (tos 0x0 DSCP Default ECN Not-ECT ttl 64 id 1 protocol 17 offset (bytes) 0 flags [none] length: 60 10.1.1.6 > 10.1.1.2) ns3::UdpHeader (length: 40 2 > 49153) Payload (size=32) ns3::EthernetTrailer (fcs=0)
r 0.0595917 /NodeList/1/DeviceList/0/$ns3::CsmaNetDevice/MacRx ns3::EthernetHeader ( length/type=0x800, source=00:00:00:00:00:36, destination=00:00:00:00:00:32) ns3::Ipv4Header (tos 0x0 DSCP Default ECN Not-ECT ttl 64 id 0 protocol 17 offset (bytes) 0 flags [none] length: 60 10.1.1.6 > 10.1.1.2) ns3::UdpHeader (length: 40 2 > 49153) Payload (size=32) ns3::EthernetTrailer (fcs=0)
r 0.0622579 /NodeList/1/DeviceList/0/$ns3::CsmaNetDevice/MacRx ns3::EthernetHeader ( length/type=0x800, source=00:00:00:00:00:36, destination=00:00:00:00:00:32) ns3::Ipv4Header (tos 0x0 DSCP Default ECN Not-ECT ttl 64 id 1 protocol 17 offset (bytes) 0 flags [none] length: 60 10.1.1.6 > 10.1.1.2) ns3::UdpHeader (length: 40 2 > 49153) Payload (size=32) ns3::EthernetTrailer (fcs=0)
+ 0.0625 /NodeList/0/DeviceList/0/$ns3::CsmaNetDevice/TxQueue/Enqueue ns3::EthernetHeader ( length/type=0x800, source=00:00:00:00:00:31, destination=00:00:00:00:00:35) ns3::Ipv4Header (tos 0x0 DSCP Default ECN Not-ECT ttl 64 id 2 protocol 17 offset (bytes) 0 flags [none] length: 60 10.1.1.1 > 10.1.1.5) ns3::UdpHeader (length: 40 49153 > 1) Payload (size=32) ns3::EthernetTrailer (fcs=0)
+ 0.0625 /NodeList/1/DeviceList/0/$ns3::CsmaNetDevice/TxQueue/Enqueue ns3::EthernetHeader ( length/type=0x800, source=00:00:00:00:00:32, destination=00:00:00:00:00:36) ns3::Ipv4Header (tos 0x0 DSCP Default ECN Not-ECT ttl 64 id 2 protocol 17 offset (bytes) 0 flags [none] length: 60 10.1.1.2 > 10.1.1.6) ns3::UdpHeader (length: 40 49153 > 2) Payload (size=32) ns3::EthernetTrailer (fcs=0)
- 0.0625 /NodeList/1/DeviceList/0/$ns3::CsmaNetDevice/TxQueue/Dequeue ns3::EthernetHeader ( length/type=0x800, source=00:00:00:00:00:32, destination=00:00:00:00:00:36) ns3::Ipv4Header (tos 0x0 DSCP Default ECN Not-ECT ttl 64 id 2 protocol 17 offset (bytes) 0 flags [none] length: 60 10.1.1.2 > 10.1.1.6) ns3::UdpHeader (length: 40 49153 > 2) Payload (size=32) ns3::EthernetTrailer (fcs=0)
+ 0.0625 /NodeList/6/DeviceList/0/$ns3::CsmaNetDevice/TxQueue/Enqueue ns3::EthernetHeader ( length/type=0x800, source=00:00:00:00:00:37, destination=00:00:00:00:00:33) ns3::Ipv4Header (tos 0x0 DSCP Default ECN Not-ECT ttl 64 id 2 protocol 17 offset (bytes) 0 flags [none] length: 60 10.1.1.7 > 10.1.1.3) ns3::UdpHeader (length: 40 49153 > 3) Payload (size=32) ns3::EthernetTrailer (fcs=0)
- 0.0625 /NodeList/6/DeviceList/0/$ns3::CsmaNetDevice/TxQueue/Dequeue ns3::EthernetHeader ( length/type=0x800, source=00:00:00:00:00:37, destination=00:00:00:00:00:33) ns3::Ipv4Header (tos 0x0 DSCP Default ECN Not-ECT ttl 64 id 2 protocol 17 offset (bytes) 0 flags [none] length: 60 10.1.1.7 > 10.1.1.3) ns3::UdpHeader (length: 40 49153 > 3) Payload (size=32) ns3::EthernetTrailer (fcs=0)
+ 0.0625 /NodeList/7/DeviceList/0/$ns3::CsmaNetDevice/TxQueue/Enqueue ns3::EthernetHeader ( length/type=0x800, source=00:00:00:00:00:38, destination=00:00:00:00:00:34) ns3::Ipv4Header (tos 0x0 DSCP Default ECN Not-ECT ttl 64 id 2 protocol 17 offset (bytes) 0 flags [none] length: 60 10.1.1.8 > 10.1.1.4) ns3::UdpHeader (length: 40 49153 > 4) Payload (size=32) ns3::EthernetTrailer (fcs=0)
r 0.0674634 /NodeList/5/DeviceList/0/$ns3::CsmaNetDevice/MacRx ns3::EthernetHeader ( length/type=0x800, source=00:00:00:00:00:32, destination=00:00:00:00:00:36) ns3::Ipv4Header (tos 0x0 DSCP Default ECN Not-ECT ttl 64 id 2 protocol 17 offset (bytes) 0 flags [none] length: 60 10.1.1.2 > 10.1.1.6) ns3::UdpHeader (length: 40 49153 > 2) Payload (size=32) ns3::EthernetTrailer (fcs=0)
+ 0.0674634 /NodeList/5/DeviceList/0/$ns3::CsmaNetDevice/TxQueue/Enqueue ns3::EthernetHeader ( length/type=0x800, source=00:00:00:00:00:36, destination=00:00:00:00:00:32) ns3::Ipv4Header (tos 0x0 DSCP Default ECN Not-ECT ttl 64 id 2 protocol 17 offset (bytes) 0 flags [none] length: 60 10.1.1.6 > 10.1.1.2) ns3::UdpHeader (length: 40 2 > 49153) Payload (size=32) ns3::EthernetTrailer (fcs=0)
- 0.0674634 /NodeList/5/DeviceList/0/$ns3::CsmaNetDevice/TxQueue/Dequeue ns3::EthernetHeader ( length/type=0x800, source=00:00:00:00:00:36, destination=00:00:00:00:00:32) ns3::Ipv4Header (tos 0x0 DSCP Default ECN Not-ECT ttl 64 id 2 protocol 17 offset (bytes) 0 flags [none] length: 60 10.1.1.6 > 10.1.1.2) ns3::UdpHeader (length: 40 2 > 49153) Payload (size=32) ns3::EthernetTrailer (fcs=0)
r 0.0700727 /NodeList/1/DeviceList/0/$ns3::CsmaNetDevice/MacRx ns3::EthernetHeader ( length/type=0x800, source=00:00:00:00:00:36, destination=00:00:00:00:00:32) ns3::Ipv4Header (tos 0x0 DSCP Default ECN Not-ECT ttl 64 id 2 protocol 17 offset (bytes) 0 flags [none] length: 60 10.1.1.6 > 10.1.1.2) ns3::UdpHeader (length: 40 2 > 49153) Payload (size=32) ns3::EthernetTrailer (fcs=0)
- 0.07096 /NodeList/7/DeviceList/0/$ns3::CsmaNetDevice/TxQueue/Dequeue ns3::EthernetHeader ( length/type=0x800, source=00:00:00:00:00:38, destination=00:00:00:00:00:34) ns3::Ipv4Header (tos 0x0 DSCP Default ECN Not-ECT ttl 64 id 2 protocol 17 offset (bytes) 0 flags [none] length: 60 10.1.1.8 > 10.1.1.4) ns3::UdpHeader (length: 40 49153 > 4) Payload (size=32) ns3::EthernetTrailer (fcs=0)
+ 0.0728662 /NodeList/3/DeviceList/0/$ns3::CsmaNetDevice/TxQueue/Enqueue ns3::EthernetHeader ( length/type=0x800, source=00:00:00:00:00:34, destination=00:00:00:00:00:38) ns3::Ipv4Header (tos 0x0 DSCP Default ECN Not-ECT ttl 64 id 0 protocol 17 offset (bytes) 0 flags [none] length: 60 10.1.1.4 > 10.1.1.8) ns3::UdpHeader (length: 40 4 > 49153) Payload (size=32) ns3::EthernetTrailer (fcs=0)
- 0.0728662 /NodeList/3/DeviceList/0/$ns3::CsmaNetDevice/TxQueue/Dequeue ns3::EthernetHeader ( length/type=0x800, source=00:00:00:00:00:34, destination=00:00:00:00:00:38) ns3::Ipv4Header (tos 0x0 DSCP Default ECN Not-ECT ttl 64 id 0 protocol 17 offset (bytes) 0 flags [none] length: 60 10.1.1.4 > 10.1.1.8) ns3::UdpHeader (length: 40 4 > 49153) Payload (size=32) ns3::EthernetTrailer (fcs=0)
+ 0.0728662 /NodeList/3/DeviceList/0/$ns3::CsmaNetDevice/TxQueue/Enqueue ns3::EthernetHeader ( length/type=0x800, source=00:00:00:00:00:34, destination=00:00:00:00:00:38) ns3::Ipv4Header (tos 0x0 DSCP Default ECN Not-ECT ttl 64 id 1 protocol 17 offset (bytes) 0 flags [none] length: 60 10.1.1.4 > 10.1.1.8) ns3::UdpHeader (length: 40 4 > 49153) Payload (size=32) ns3::EthernetTrailer (fcs=0)
- 0.0735704 /NodeList/3/DeviceList/0/$ns3::CsmaNetDevice/TxQueue/Dequeue ns3::EthernetHeader ( length/type=0x800, source=00:00:00:00:00:34, destination=00:00:00:00:00:38) ns3::Ipv4Header (tos 0x0 DSCP Default ECN Not-ECT ttl 64 id 1 protocol 17 offset (bytes) 0 flags [none] length: 60 10.1.1.4 > 10.1.1.8) ns3::UdpHeader (length: 40 4 > 49153) Payload (size=32) ns3::EthernetTrailer (fcs=0)
r 0.0754766 /NodeList/7/DeviceList/0/$ns3::CsmaNetDevice/MacRx ns3::EthernetHeader ( length/type=0x800, source=00:00:00:00:00:34, destination=00:00:00:00:00:38) ns3::Ipv4Header (tos 0x0 DSCP Default ECN Not-ECT ttl 64 id 0 protocol 17 offset (bytes) 0 flags [none] length: 60 10.1.1.4 > 10.1.1.8) ns3::UdpHeader (length: 40 4 > 49153) Payload (size=32) ns3::EthernetTrailer (fcs=0)
r 0.0782394 /NodeList/3/DeviceList/0/$ns3::CsmaNetDevice/MacRx ns3::EthernetHeader ( length/type=0x800, source=00:00:00:00:00:38, destination=00:00:00:00:00:34) ns3::Ipv4Header (tos 0x0 DSCP Default ECN Not-ECT ttl 64 id 2 protocol 17 offset (bytes) 0 flags [none] length: 60 10.1.1.8 > 10.1.1.4) ns3::UdpHeader (length: 40 49153 > 4) Payload (size=32) ns3::EthernetTrailer (fcs=0)
+ 0.0782394 /NodeList/3/DeviceList/0/$ns3::CsmaNetDevice/TxQueue/Enqueue ns3::EthernetHeader ( length/type=0x800, source=00:00:00:00:00:34, destination=00:00:00:00:00:38) ns3::Ipv4Header (tos 0x0 DSCP Default ECN Not-ECT ttl 64 id 2 protocol 17 offset (bytes) 0 flags [none] length: 60 10.1.1.4 > 10.1.1.8) ns3::UdpHeader (length: 40 4 > 49153) Payload (size=32) ns3::EthernetTrailer (fcs=0)
- 0.0789755 /NodeList/3/DeviceList/0/$ns3::CsmaNetDevice/TxQueue/Dequeue ns3::EthernetHeader ( length/type=0x800, source=00:00:00:00:00:34, destination=00:00:00:00:00:38) ns3::Ipv4Header (tos 0x0 DSCP Default ECN Not-ECT ttl 64 id 2 protocol 17 offset (bytes) 0 flags [none] length: 60 10.1.1.4 > 10.1.1.8) ns3::UdpHeader (length: 40 4 > 49153) Payload (size=32) ns3::EthernetTrailer (fcs=0)
r 0.0808817 /NodeList/7/DeviceList/0/$ns3::CsmaNetDevice/MacRx ns3::EthernetHeader ( length/type=0x800, source=00:00:00:00:00:34, destination=00:00:00:00:00:38) ns3::Ipv4Header (tos 0x0 DSCP Default ECN Not-ECT ttl 64 id 1 protocol 17 offset (bytes) 0 flags [none] length: 60 10.1.1.4 > 10.1.1.8) ns3::UdpHeader (length: 40 4 > 49153) Payload (size=32) ns3::EthernetTrailer (fcs=0)
- 0.0816762 /NodeList/0/DeviceList/0/$ns3::CsmaNetDevice/TxQueue/Dequeue ns3::EthernetHeader ( length/type=0x800, source=00:00:00:00:00:31, destination=00:00:00:00:00:35) ns3::Ipv4Header (tos 0x0 DSCP Default ECN Not-ECT ttl 64 id 2 protocol 17 offset (bytes) 0 flags [none] length: 60 10.1.1.1 > 10.1.1.5) ns3::UdpHeader (length: 40 49153 > 1) Payload (size=32) ns3::EthernetTrailer (fcs=0)
r 0.0835825 /NodeList/4/DeviceList/0/$ns3::CsmaNetDevice/MacRx ns3::EthernetHeader ( length/type=0x800, source=00:00:00:00:00:31, destination=00:00:00:00:00:35) ns3::Ipv4Header (tos 0x0 DSCP Default ECN Not-ECT ttl 64 id 1 protocol 17 offset (bytes) 0 flags [none] length: 60 10.1.1.1 > 10.1.1.5) ns3::UdpHeader (length: 40 49153 > 1) Payload (size=32) ns3::EthernetTrailer (fcs=0)
r 0.0863246 /NodeList/4/DeviceList/0/$ns3::CsmaNetDevice/MacRx ns3::EthernetHeader ( length/type=0x800, source=00:00:00:00:00:31, destination=00:00:00:00:00:35) ns3::Ipv4Header (tos 0x0 DSCP Default ECN Not-ECT ttl 64 id 2 protocol 17 offset (bytes) 0 flags [none] length: 60 10.1.1.1 > 10.1.1.5) ns3::UdpHeader (length: 40 49153 > 1) Payload (size=32) ns3::EthernetTrailer (fcs=0)
+ 0.0891054 /NodeList/4/DeviceList/0/$ns3::CsmaNetDevice/TxQueue/Enqueue ns3::EthernetHeader ( length/type=0x800, source=00:00:00:00:00:35, destination=00:00:00:00:00:31) ns3::Ipv4Header (tos 0x0 DSCP Default ECN Not-ECT ttl 64 id 0 protocol 17 offset (bytes) 0 flags [none] length: 60 10.1.1.5 > 10.1.1.1) ns3::UdpHeader (length: 40 1 > 49153) Payload (size=32) ns3::EthernetTrailer (fcs=0)
- 0.0891054 /NodeList/4/DeviceList/0/$ns3::CsmaNetDevice/TxQueue/Dequeue ns3::EthernetHeader ( length/type=0x800, source=00:00:00:00:00:35, destination=00:00:00:00:00:31) ns3::Ipv4Header (tos 0x0 DSCP Default ECN Not-ECT ttl 64 id 0 protocol 17 offset (bytes) 0 flags [none] length: 60 10.1.1.5 > 10.1.1.1) ns3::UdpHeader (length: 40 1 > 49153) Payload (size=32) ns3::EthernetTrailer (fcs=0)
+ 0.0891054 /NodeList/4/DeviceList/0/$ns3::CsmaNetDevice/TxQueue/Enqueue ns3::EthernetHeader ( length/type=0x800, source=00:00:00:00:00:35, destination=00:00:00:00:00:31) ns3::Ipv4Header (tos 0x0 DSCP Default ECN Not-ECT ttl 64 id 1 protocol 17 offset (bytes) 0 flags [none] length: 60 10.1.1.5 > 10.1.1.1) ns3::UdpHeader (length: 40 1 > 49153) Payload (size=32) ns3::EthernetTrailer (fcs=0)
+ 0.0891054 /NodeList/4/DeviceList/0/$ns3::CsmaNetDevice/TxQueue/Enqueue ns3::EthernetHeader ( length/type=0x800, source=00:00:00:00:00:35, destination=00:00:00:00:00:31) ns3::Ipv4Header (tos 0x0 DSCP Default ECN Not-ECT ttl 64 id 2 protocol 17 offset (bytes) 0 flags [none] length: 60 10.1.1.5 > 10.1.1.1) ns3::UdpHeader (length: 40 1 > 49153) Payload (size=32) ns3::EthernetTrailer (fcs=0)
- 0.0898095 /NodeList/4/DeviceList/0/$ns3::CsmaNetDevice/TxQueue/Dequeue ns3::EthernetHeader ( length/type=0x800, source=00:00:00:00:00:35, destination=00:00:00:00:00:31) ns3::Ipv4Header (tos 0x0 DSCP Default ECN Not-ECT ttl 64 id 1 protocol 17 offset (bytes) 0 flags [none] length: 60 10.1.1.5 > 10.1.1.1) ns3::UdpHeader (length: 40 1 > 49153) Payload (size=32) ns3::EthernetTrailer (fcs=0)
r 0.0917157 /NodeList/0/DeviceList/0/$ns3::CsmaNetDevice/MacRx ns3::EthernetHeader ( length/type=0x800, source=00:00:00:00:00:35, destination=00:00:00:00:00:31) ns3::Ipv4Header (tos 0x0 DSCP Default ECN Not-ECT ttl 64 id 0 protocol 17 offset (bytes) 0 flags [none] length: 60 10.1.1.5 > 10.1.1.1) ns3::UdpHeader (length: 40 1 > 49153) Payload (size=32) ns3::EthernetTrailer (fcs=0)
+ 0.09375 /NodeList/0/DeviceList/0/$ns3::CsmaNetDevice/TxQueue/Enqueue ns3::EthernetHeader ( length/type=0x800, source=00:00:00:00:00:31, destination=00:00:00:00:00:35) ns3::Ipv4Header (tos 0x0 DSCP Default ECN Not-ECT ttl 64 id 3 protocol 17 offset (bytes) 0 flags [none] length: 60 10.1.1.1 > 10.1.1.5) ns3::UdpHeader (length: 40 49153 > 1) Payload (size=32) ns3::EthernetTrailer (fcs=0)
- 0.09375 /NodeList/0/DeviceList/0/$ns3::CsmaNetDevice/TxQueue/Dequeue ns3::EthernetHeader ( length/type=0x800, source=00:00:00:00:00:31, destination=00:00:00:00:00:35) ns3::Ipv4Header (tos 0x0 DSCP Default ECN Not-ECT ttl 64 id 3 protocol 17 offset (bytes) 0 flags [none] length: 60 10.1.1.1 > 10.1.1.5) ns3::UdpHeader (length: 40 49153 > 1) Payload (size=32) ns3::EthernetTrailer (fcs=0)
+ 0.09375 /NodeList/1/DeviceList/0/$ns3::CsmaNetDevice/TxQueue/Enqueue ns3::EthernetHeader ( length/type=0x800, source=00:00:00:00:00:32, destination=00:00:00:00:00:36) ns3::Ipv4Header (tos 0x0 DSCP Default ECN Not-ECT ttl 64 id 3 protocol 17 offset (bytes) 0 flags [none] length: 60 10.1.1.2 > 10.1.1.6) ns3::UdpHeader (length: 40 49153 > 2) Payload (size=32) ns3::EthernetTrailer (fcs=0)
- 0.09375 /NodeList/1/DeviceList/0/$ns3::CsmaNetDevice/TxQueue/Dequeue ns3::EthernetHeader ( length/type=0x800, source=00:00:00:00:00:32, destination=00:00:00:00:00:36) ns3::Ipv4Header (tos 0x0 DSCP Default ECN Not-ECT ttl 64 id 3 protocol 17 offset (bytes) 0 flags [none] length: 60 10.1.1.2 > 10.1.1.6) ns3::UdpHeader (length: 40 49153 > 2) Payload (size=32) ns3::EthernetTrailer (fcs=0)
+ 0.09375 /NodeList/6/DeviceList/0/$ns3::CsmaNetDevice/TxQueue/Enqueue ns3::EthernetHeader ( length/type=0x800, source=00:00:00:00:00:37, destination=00:00:00:00:00:33) ns3::Ipv4Header (tos 0x0 DSCP Default ECN Not-ECT ttl 64 id 3 protocol 17 offset (bytes) 0 flags [none] length: 60 10.1.1.7 > 10.1.1.3) ns3::UdpHeader (length: 40 49153 > 3) Payload (size=32) ns3::EthernetTrailer (fcs=0)
- 0.09375 /NodeList/6/DeviceList/0/$ns3::CsmaNetDevice/TxQueue/Dequeue ns3::EthernetHeader ( length/type=0x800, source=00:00:00:00:00:37, destination=00:00:00:00:00:33) ns3::Ipv4Header (tos 0x0 DSCP Default ECN Not-ECT ttl 64 id 3 protocol 17 offset (bytes) 0 flags [none] length: 60 10.1.1.7 > 10.1.1.3) ns3::UdpHeader (length: 40 49153 > 3) Payload (size=32) ns3::EthernetTrailer (fcs=0)
+ 0.09375 /NodeList/7/DeviceList/0/$ns3::CsmaNetDevice/TxQueue/Enqueue ns3::EthernetHeader ( length/type=0x800, source=00:00:00:00:00:38, destination=00:00:00:00:00:34) ns3::Ipv4Header (tos 0x0 DSCP Default ECN Not-ECT ttl 64 id 3 protocol 17 offset (bytes) 0 flags [none] length: 60 10.1.1.8 > 10.1.1.4) ns3::UdpHeader (length: 40 49153 > 4) Payload (size=32) ns3::EthernetTrailer (fcs=0)
- 0.09375 /NodeList/7/DeviceList/0/$ns3::CsmaNetDevice/TxQueue/Dequeue ns3::EthernetHeader ( length/type=0x800, source=00:00:00:00:00:38, destination=00:00:00:00:00:34) ns3::Ipv4Header (tos 0x0 DSCP Default ECN Not-ECT ttl 64 id 3 protocol 17 offset (bytes) 0 flags [none] length: 60 10.1.1.8 > 10.1.1.4) ns3::UdpHeader (length: 40 49153 > 4) Payload (size=32) ns3::EthernetTrailer (fcs=0)
r 0.0948174 /NodeList/2/DeviceList/0/$ns3::CsmaNetDevice/MacRx ns3::EthernetHeader ( length/type=0x800, source=00:00:00:00:00:37, destination=00:00:00:00:00:33) ns3::Ipv4Header (tos 0x0 DSCP Default ECN Not-ECT ttl 64 id 2 protocol 17 offset (bytes) 0 flags [none] length: 60 10.1.1.7 > 10.1.1.3) ns3::UdpHeader (length: 40 49153 > 3) Payload (size=32) ns3::EthernetTrailer (fcs=0)
+ 0.0948174 /NodeList/2/DeviceList/0/$ns3::CsmaNetDevice/TxQueue/Enqueue ns3::EthernetHeader ( length/type=0x800, source=00:00:00:00:00:33, destination=00:00:00:00:00:37) ns3::Ipv4Header (tos 0x0 DSCP Default ECN Not-ECT ttl 64 id 2 protocol 17 offset (bytes) 0 flags [none] length: 60 10.1.1.3 > 10.1.1.7) ns3::UdpHeader (length: 40 3 > 49153) Payload (size=32) ns3::EthernetTrailer (fcs=0)
- 0.0948174 /NodeList/2/DeviceList/0/$ns3::CsmaNetDevice/TxQueue/Dequeue ns3::EthernetHeader ( length/type=0x800, source=00:00:00:00:00:33, destination=00:00:00:00:00:37) ns3::Ipv4Header (tos 0x0 DSCP Default ECN Not-ECT ttl 64 id 2 protocol 17 offset (bytes) 0 flags [none] length: 60 10.1.1.3 > 10.1.1.7) ns3::UdpHeader (length: 40 3 > 49153) Payload (size=32) ns3::EthernetTrailer (fcs=0)
r 0.0974267 /NodeList/6/DeviceList/0/$ns3::CsmaNetDevice/MacRx ns3::EthernetHeader ( length/type=0x800, source=00:00:00:00:00:33, destination=00:00:00:00:00:37) ns3::Ipv4Header (tos 0x0 DSCP Default ECN Not-ECT ttl 64 id 2 protocol 17 offset (bytes) 0 flags [none] length: 60 10.1.1.3 > 10.1.1.7) ns3::UdpHeader (length: 40 3 > 49153) Payload (size=32) ns3::EthernetTrailer (fcs=0)
- 0.0981696 /NodeList/4/DeviceList/0/$ns3::CsmaNetDevice/TxQueue/Dequeue ns3::EthernetHeader ( length/type=0x800, source=00:00:00:00:00:35, destination=00:00:00:00:00:31) ns3::Ipv4Header (tos 0x0 DSCP Default ECN Not-ECT ttl 64 id 2 protocol 17 offset (bytes) 0 flags [none] length: 60 10.1.1.5 > 10.1.1.1) ns3::UdpHeader (length: 40 1 > 49153) Payload (size=32) ns3::EthernetTrailer (fcs=0)