+ 0.005001 /NodeList/6/DeviceList/0/$ns3::CsmaNetDevice/TxQueue/Enqueue ns3::EthernetHeader ( length/type=0x800, source=00:00:00:00:00:4f, destination=00:00:00:00:00:4b) ns3::Ipv4Header (tos 0x0 DSCP Default ECN Not-ECT ttl 64 id 0 protocol 17 offset (bytes) 0 flags [none] length: 60 10.1.1.7 > 10.1.1.3) ns3::UdpHeader (length: 40 49153 > 3) Payload (size=32) ns3::EthernetTrailer (fcs=0)
- 0.005001 /NodeList/6/DeviceList/0/$ns3::CsmaNetDevice/TxQueue/Dequeue ns3::EthernetHeader ( length/type=0x800, source=00:00:00:00:00:4f, destination=00:00:00:00:00:4b) ns3::Ipv4Header (tos 0x0 DSCP Default ECN Not-ECT ttl 64 id 0 protocol 17 offset (bytes) 0 flags [none] length: 60 10.1.1.7 > 10.1.1.3) ns3::UdpHeader (length: 40 49153 > 3) Payload (size=32) ns3::EthernetTrailer (fcs=0)
+ 0.010002 /NodeList/0/DeviceList/0/$ns3::CsmaNetDevice/TxQueue/Enqueue ns3::EthernetHeader ( length/type=0x800, source=00:00:00:00:00:49, destination=00:00:00:00:00:4d) ns3::Ipv4Header (tos 0x0 DSCP Default ECN Not-ECT ttl 64 id 0 protocol 17 offset (bytes) 0 flags [none] length: 60 10.1.1.1 > 10.1.1.5) ns3::UdpHeader (length: 40 49153 > 1) Payload (size=32) ns3::EthernetTrailer (fcs=0)
- 0.010002 /NodeList/0/DeviceList/0/$ns3::CsmaNetDevice/TxQueue/Dequeue ns3::EthernetHeader ( length/type=0x800, source=00:00:00:00:00:49, destination=00:00:00:00:00:4d) ns3::Ipv4Header (tos 0x0 DSCP Default ECN Not-ECT ttl 64 id 0 protocol 17 offset (bytes) 0 flags [none] length: 60 10.1.1.1 > 10.1.1.5) ns3::UdpHeader (length: 40 49153 > 1) Payload (size=32) ns3::EthernetTrailer (fcs=0)
r 0.0126124 /NodeList/4/DeviceList/0/$ns3::CsmaNetDevice/MacRx ns3::EthernetHeader ( length/type=0x800, source=00:00:00:00:00:49, destination=00:00:00:00:00:4d) ns3::Ipv4Header (tos 0x0 DSCP Default ECN Not-ECT ttl 64 id 0 protocol 17 offset (bytes) 0 flags [none] length: 60 10.1.1.1 > 10.1.1.5) ns3::UdpHeader (length: 40 49153 > 1) Payload (size=32) ns3::EthernetTrailer (fcs=0)
+ 0.017623 /NodeList/7/DeviceList/0/$ns3::CsmaNetDevice/TxQueue/Enqueue ns3::EthernetHeader ( length/type=0x800, source=00:00:00:00:00:50, destination=00:00:00:00:00:4c) ns3::Ipv4Header (tos 0x0 DSCP Default ECN Not-ECT ttl 64 id 0 protocol 17 offset (bytes) 0 flags [none] length: 60 10.1.1.8 > 10.1.1.4) ns3::UdpHeader (length: 40 49153 > 4) Payload (size=32) ns3::EthernetTrailer (fcs=0)
- 0.017623 /NodeList/7/DeviceList/0/$ns3::CsmaNetDevice/TxQueue/Dequeue ns3::EthernetHeader ( length/type=0x800, source=00:00:00:00:00:50, destination=00:00:00:00:00:4c) ns3::Ipv4Header (tos 0x0 DSCP Default ECN Not-ECT ttl 64 id 0 protocol 17 offset (bytes) 0 flags [none] length: 60 10.1.1.8 > 10.1.1.4) ns3::UdpHeader (length: 40 49153 > 4) Payload (size=32) ns3::EthernetTrailer (fcs=0)
r 0.0202334 /NodeList/3/DeviceList/0/$ns3::CsmaNetDevice/MacRx ns3::EthernetHeader ( length/type=0x800, source=00:00:00:00:00:50, destination=00:00:00:00:00:4c) ns3::Ipv4Header (tos 0x0 DSCP Default ECN Not-ECT ttl 64 id 0 protocol 17 offset (bytes) 0 flags [none] length: 60 10.1.1.8 > 10.1.1.4) ns3::UdpHeader (length: 40 49153 > 4) Payload (size=32) ns3::EthernetTrailer (fcs=0)
+ 0.025249 /NodeList/1/DeviceList/0/$ns3::CsmaNetDevice/TxQueue/Enqueue ns3::EthernetHeader ( length/type=0x800, source=00:00:00:00:00:4a, destination=00:00:00:00:00:4e) ns3::Ipv4Header (tos 0x0 DSCP Default ECN Not-ECT ttl 64 id 0 protocol 17 offset (bytes) 0 flags [none] length: 60 10.1.1.2 > 10.1.1.6) ns3::UdpHeader (length: 40 49153 > 2) Payload (size=32) ns3::EthernetTrailer (fcs=0)
- 0.025249 /NodeList/1/DeviceList/0/$ns3::CsmaNetDevice/TxQueue/Dequeue ns3::EthernetHeader ( length/type=0x800, source=00:00:00:00:00:4a, destination=00:00:00:00:00:4e) ns3::Ipv4Header (tos 0x0 DSCP Default ECN Not-ECT ttl 64 id 0 protocol 17 offset (bytes) 0 flags [none] length: 60 10.1.1.2 > 10.1.1.6) ns3::UdpHeader (length: 40 49153 > 2) Payload (size=32) ns3::EthernetTrailer (fcs=0)
r 0.0278594 /NodeList/5/DeviceList/0/$ns3::CsmaNetDevice/MacRx ns3::EthernetHeader ( length/type=0x800, source=00:00:00:00:00:4a, destination=00:00:00:00:00:4e) ns3::Ipv4Header (tos 0x0 DSCP Default ECN Not-ECT ttl 64 id 0 protocol 17 offset (bytes) 0 flags [none] length: 60 10.1.1.2 > 10.1.1.6) ns3::UdpHeader (length: 40 49153 > 2) Payload (size=32) ns3::EthernetTrailer (fcs=0)
+ 0.03125 /NodeList/0/DeviceList/0/$ns3::CsmaNetDevice/TxQueue/Enqueue ns3::EthernetHeader ( length/type=0x800, source=00:00:00:00:00:49, destination=00:00:00:00:00:4d) ns3::Ipv4Header (tos 0x0 DSCP Default ECN Not-ECT ttl 64 id 1 protocol 17 offset (bytes) 0 flags [none] length: 60 10.1.1.1 > 10.1.1.5) ns3::UdpHeader (length: 40 49153 > 1) Payload (size=32) ns3::EthernetTrailer (fcs=0)
- 0.03125 /NodeList/0/DeviceList/0/$ns3::CsmaNetDevice/TxQueue/Dequeue ns3::EthernetHeader ( length/type=0x800, source=00:00:00:00:00:49, destination=00:00:00:00:00:4d) ns3::Ipv4Header (tos 0x0 DSCP Default ECN Not-ECT ttl 64 id 1 protocol 17 offset (bytes) 0 flags [none] length: 60 10.1.1.1 > 10.1.1.5) ns3::UdpHeader (length: 40 49153 > 1) Payload (size=32) ns3::EthernetTrailer (fcs=0)
+ 0.03125 /NodeList/1/DeviceList/0/$ns3::CsmaNetDevice/TxQueue/Enqueue ns3::EthernetHeader ( length/type=0x800, source=00:00:00:00:00:4a, destination=00:00:00:00:00:4e) ns3::Ipv4Header (tos 0x0 DSCP Default ECN Not-ECT ttl 64 id 1 protocol 17 offset (bytes) 0 flags [none] length: 60 10.1.1.2 > 10.1.1.6) ns3::UdpHeader (length: 40 49153 > 2) Payload (size=32) ns3::EthernetTrailer (fcs=0)
- 0.03125 /NodeList/1/DeviceList/0/$ns3::CsmaNetDevice/TxQueue/Dequeue ns3::EthernetHeader ( length/type=0x800, source=00:00:00:00:00:4a, destination=00:00:00:00:00:4e) ns3::Ipv4Header (tos 0x0 DSCP Default ECN Not-ECT ttl 64 id 1 protocol 17 offset (bytes) 0 flags [none] length: 60 10.1.1.2 > 10.1.1.6) ns3::UdpHeader (length: 40 49153 > 2) Payload (size=32) ns3::EthernetTrailer (fcs=0)
+ 0.03125 /NodeList/6/DeviceList/0/$ns3::CsmaNetDevice/TxQueue/Enqueue ns3::EthernetHeader ( length/type=0x800, source=00:00:00:00:00:4f, destination=00:00:00:00:00:4b) ns3::Ipv4Header (tos 0x0 DSCP Default ECN Not-ECT ttl 64 id 1 protocol 17 offset (bytes) 0 flags [none] length: 60 10.1.1.7 > 10.1.1.3) ns3::UdpHeader (length: 40 49153 > 3) Payload (size=32) ns3::EthernetTrailer (fcs=0)
+ 0.03125 /NodeList/7/DeviceList/0/$ns3::CsmaNetDevice/TxQueue/Enqueue ns3::EthernetHeader ( length/type=0x800, source=00:00:00:00:00:50, destination=00:00:00:00:00:4c) ns3::Ipv4Header (tos 0x0 DSCP Default ECN Not-ECT ttl 64 id 1 protocol 17 offset (bytes) 0 flags [none] length: 60 10.1.1.8 > 10.1.1.4) ns3::UdpHeader (length: 40 49153 > 4) Payload (size=32) ns3::EthernetTrailer (fcs=0)
- 0.03125 /NodeList/7/DeviceList/0/$ns3::CsmaNetDevice/TxQueue/Dequeue ns3::EthernetHeader ( length/type=0x800, source=00:00:00:00:00:50, destination=00:00:00:00:00:4c) ns3::Ipv4Header (tos 0x0 DSCP Default ECN Not-ECT ttl 64 id 1 protocol 17 offset (bytes) 0 flags [none] length: 60 10.1.1.8 > 10.1.1.4) ns3::UdpHeader (length: 40 49153 > 4) Payload (size=32) ns3::EthernetTrailer (fcs=0)
+ 0.0330114 /NodeList/4/DeviceList/0/$ns3::CsmaNetDevice/TxQueue/Enqueue ns3::EthernetHeader ( length/type=0x800, source=00:00:00:00:00:4d, destination=00:00:00:00:00:49) ns3::Ipv4Header (tos 0x0 DSCP Default ECN Not-ECT ttl 64 id 0 protocol 17 offset (bytes) 0 flags [none] length: 60 10.1.1.5 > 10.1.1.1) ns3::UdpHeader (length: 40 1 > 49153) Payload (size=32) ns3::EthernetTrailer (fcs=0)
- 0.0330114 /NodeList/4/DeviceList/0/$ns3::CsmaNetDevice/TxQueue/Dequeue ns3::EthernetHeader ( length/type=0x800, source=00:00:00:00:00:4d, destination=00:00:00:00:00:49) ns3::Ipv4Header (tos 0x0 DSCP Default ECN Not-ECT ttl 64 id 0 protocol 17 offset (bytes) 0 flags [none] length: 60 10.1.1.5 > 10.1.1.1) ns3::UdpHeader (length: 40 1 > 49153) Payload (size=32) ns3::EthernetTrailer (fcs=0)
r 0.0356217 /NodeList/0/DeviceList/0/$ns3::CsmaNetDevice/MacRx ns3::EthernetHeader ( length/type=0x800, source=00:00:00:00:00:4d, destination=00:00:00:00:00:49) ns3::Ipv4Header (tos 0x0 DSCP Default ECN Not-ECT ttl 64 id 0 protocol 17 offset (bytes) 0 flags [none] length: 60 10.1.1.5 > 10.1.1.1) ns3::UdpHeader (length: 40 1 > 49153) Payload (size=32) ns3::EthernetTrailer (fcs=0)
r 0.0408474 /NodeList/4/DeviceList/0/$ns3::CsmaNetDevice/MacRx ns3::EthernetHeader ( length/type=0x800, source=00:00:00:00:00:49, destination=00:00:00:00:00:4d) ns3::Ipv4Header (tos 0x0 DSCP Default ECN Not-ECT ttl 64 id 1 protocol 17 offset (bytes) 0 flags [none] length: 60 10.1.1.1 > 10.1.1.5) ns3::UdpHeader (length: 40 49153 > 1) Payload (size=32) ns3::EthernetTrailer (fcs=0)
+ 0.0408474 /NodeList/4/DeviceList/0/$ns3::CsmaNetDevice/TxQueue/Enqueue ns3::EthernetHeader ( length/type=0x800, source=00:00:00:00:00:4d, destination=00:00:00:00:00:49) ns3::Ipv4Header (tos 0x0 DSCP Default ECN Not-ECT ttl 64 id 1 protocol 17 offset (bytes) 0 flags [none] length: 60 10.1.1.5 > 10.1.1.1) ns3::UdpHeader (length: 40 1 > 49153) Payload (size=32) ns3::EthernetTrailer (fcs=0)
- 0.0408474 /NodeList/4/DeviceList/0/$ns3::CsmaNetDevice/TxQueue/Dequeue ns3::EthernetHeader ( length/type=0x800, source=00:00:00:00:00:4d, destination=00:00:00:00:00:49) ns3::Ipv4Header (tos 0x0 DSCP Default ECN Not-ECT ttl 64 id 1 protocol 17 offset (bytes) 0 flags [none] length: 60 10.1.1.5 > 10.1.1.1) ns3::UdpHeader (length: 40 1 > 49153) Payload (size=32) ns3::EthernetTrailer (fcs=0)
r 0.0434567 /NodeList/0/DeviceList/0/$ns3::CsmaNetDevice/MacRx ns3::EthernetHeader ( length/type=0x800, source=00:00:00:00:00:4d, destination=00:00:00:00:00:49) ns3::Ipv4Header (tos 0x0 DSCP Default ECN Not-ECT ttl 64 id 1 protocol 17 offset (bytes) 0 flags [none] length: 60 10.1.1.5 > 10.1.1.1) ns3::UdpHeader (length: 40 1 > 49153) Payload (size=32) ns3::EthernetTrailer (fcs=0)
r 0.0462724 /NodeList/5/DeviceList/0/$ns3::CsmaNetDevice/MacRx ns3::EthernetHeader ( length/type=0x800, source=00:00:00:00:00:4a, destination=00:00:00:00:00:4e) ns3::Ipv4Header (tos 0x0 DSCP Default ECN Not-ECT ttl 64 id 1 protocol 17 offset (bytes) 0 flags [none] length: 60 10.1.1.2 > 10.1.1.6) ns3::UdpHeader (length: 40 49153 > 2) Payload (size=32) ns3::EthernetTrailer (fcs=0)
r 0.0490764 /NodeList/3/DeviceList/0/$ns3::CsmaNetDevice/MacRx ns3::EthernetHeader ( length/type=0x800, source=00:00:00:00:00:50, destination=00:00:00:00:00:4c) ns3::Ipv4Header (tos 0x0 DSCP Default ECN Not-ECT ttl 64 id 1 protocol 17 offset (bytes) 0 flags [none] length: 60 10.1.1.8 > 10.1.1.4) ns3::UdpHeader (length: 40 49153 > 4) Payload (size=32) ns3::EthernetTrailer (fcs=0)
+ 0.0541654 /NodeList/5/DeviceList/0/$ns3::CsmaNetDevice/TxQueue/Enqueue ns3::EthernetHeader ( length/type=0x800, source=00:00:00:00:00:4e, destination=00:00:00:00:00:4a) ns3::Ipv4Header (tos 0x0 DSCP Default ECN Not-ECT ttl 64 id 0 protocol 17 offset (bytes) 0 flags [none] length: 60 10.1.1.6 > 10.1.1.2) ns3::UdpHeader (length: 40 2 > 49153) Payload (size=32) ns3::EthernetTrailer (fcs=0)
- 0.0541654 /NodeList/5/DeviceList/0/$ns3::CsmaNetDevice/TxQueue/Dequeue ns3::EthernetHeader ( length/type=0x800, source=00:00:00:00:00:4e, destination=00:00:00:00:00:4a) ns3::Ipv4Header (tos 0x0 DSCP Default ECN Not-ECT ttl 64 id 0 protocol 17 offset (bytes) 0 flags [none] length: 60 10.1.1.6 > 10.1.1.2) ns3::UdpHeader (length: 40 2 > 49153) Payload (size=32) ns3::EthernetTrailer (fcs=0)
+ 0.0541654 /NodeList/5/DeviceList/0/$ns3::CsmaNetDevice/TxQueue/Enqueue ns3::EthernetHeader ( length/type=0x800, source=00:00:00:00:00:4e, destination=00:00:00:00:00:4a) ns3::Ipv4Header (tos 0x0 DSCP Default ECN Not-ECT ttl 64 id 1 protocol 17 offset (bytes) 0 flags [none] length: 60 10.1.1.6 > 10.1.1.2) ns3::UdpHeader (length: 40 2 > 49153) Payload (size=32) ns3::EthernetTrailer (fcs=0)
- 0.0548695 /NodeList/5/DeviceList/0/$ns3::CsmaNetDevice/TxQueue/Dequeue ns3::EthernetHeader ( length/type=0x800, source=00:00:00:00:00:4e, destination=00:00:00:00:00:4a) ns3::Ipv4Header (tos 0x0 DSCP Default ECN Not-ECT ttl 64 id 1 protocol 17 offset (bytes) 0 flags [none] length: 60 10.1.1.6 > 10.1.1.2) ns3::UdpHeader (length: 40 2 > 49153) Payload (size=32) ns3::EthernetTrailer (fcs=0)
r 0.0567757 /NodeList/1/DeviceList/0/$ns3::CsmaNetDevice/MacRx ns3::EthernetHeader ( length/type=0x800, source=00:00:00:00:00:4e, destination=00:00:00:00:00:4a) ns3::Ipv4Header (tos 0x0 DSCP Default ECN Not-ECT ttl 64 id 0 protocol 17 offset (bytes) 0 flags [none] length: 60 10.1.1.6 > 10.1.1.2) ns3::UdpHeader (length: 40 2 > 49153) Payload (size=32) ns3::EthernetTrailer (fcs=0)
+ 0.0593911 /NodeList/3/DeviceList/0/$ns3::CsmaNetDevice/TxQueue/Enqueue ns3::EthernetHeader ( length/type=0x800, source=00:00:00:00:00:4c, destination=00:00:00:00:00:50) ns3::Ipv4Header (tos 0x0 DSCP Default ECN Not-ECT ttl 64 id 0 protocol 17 offset (bytes) 0 flags [none] length: 60 10.1.1.4 > 10.1.1.8) ns3::UdpHeader (length: 40 4 > 49153) Payload (size=32) ns3::EthernetTrailer (fcs=0)
- 0.0593911 /NodeList/3/DeviceList/0/$ns3::CsmaNetDevice/TxQueue/Dequeue ns3::EthernetHeader ( length/type=0x800, source=00:00:00:00:00:4c, destination=00:00:00:00:00:50) ns3::Ipv4Header (tos 0x0 DSCP Default ECN Not-ECT ttl 64 id 0 protocol 17 offset (bytes) 0 flags [none] length: 60 10.1.1.4 > 10.1.1.8) ns3::UdpHeader (length: 40 4 > 49153) Payload (size=32) ns3::EthernetTrailer (fcs=0)
+ 0.0593911 /NodeList/3/DeviceList/0/$ns3::CsmaNetDevice/TxQueue/Enqueue ns3::EthernetHeader ( length/type=0x800, source=00:00:00:00:00:4c, destination=00:00:00:00:00:50) ns3::Ipv4Header (tos 0x0 DSCP Default ECN Not-ECT ttl 64 id 1 protocol 17 offset (bytes) 0 flags [none] length: 60 10.1.1.4 > 10.1.1.8) ns3::UdpHeader (length: 40 4 > 49153) Payload (size=32) ns3::EthernetTrailer (fcs=0)
- 0.0600952 /NodeList/3/DeviceList/0/$ns3::CsmaNetDevice/TxQueue/Dequeue ns3::EthernetHeader ( length/type=0x800, source=00:00:00:00:00:4c, destination=00:00:00:00:00:50) ns3::Ipv4Header (tos 0x0 DSCP Default ECN Not-ECT ttl 64 id 1 protocol 17 offset (bytes) 0 flags [none] length: 60 10.1.1.4 > 10.1.1.8) ns3::UdpHeader (length: 40 4 > 49153) Payload (size=32) ns3::EthernetTrailer (fcs=0)
r 0.0620015 /NodeList/7/DeviceList/0/$ns3::CsmaNetDevice/MacRx ns3::EthernetHeader ( length/type=0x800, source=00:00:00:00:00:4c, destination=00:00:00:00:00:50) ns3::Ipv4Header (tos 0x0 DSCP Default ECN Not-ECT ttl 64 id 0 protocol 17 offset (bytes) 0 flags [none] length: 60 10.1.1.4 > 10.1.1.8) ns3::UdpHeader (length: 40 4 > 49153) Payload (size=32) ns3::EthernetTrailer (fcs=0)
+ 0.0625 /NodeList/0/DeviceList/0/$ns3::CsmaNetDevice/TxQueue/Enqueue ns3::EthernetHeader ( length/type=0x800, source=00:00:00:00:00:49, destination=00:00:00:00:00:4d) ns3::Ipv4Header (tos 0x0 DSCP Default ECN Not-ECT ttl 64 id 2 protocol 17 offset (bytes) 0 flags [none] length: 60 10.1.1.1 > 10.1.1.5) ns3::UdpHeader (length: 40 49153 > 1) Payload (size=32) ns3::EthernetTrailer (fcs=0)
- 0.0625 /NodeList/0/DeviceList/0/$ns3::CsmaNetDevice/TxQueue/Dequeue ns3::EthernetHeader ( length/type=0x800, source=00:00:00:00:00:49, destination=00:00:00:00:00:4d) ns3::Ipv4Header (tos 0x0 DSCP Default ECN Not-ECT ttl 64 id 2 protocol 17 offset (bytes) 0 flags [none] length: 60 10.1.1.1 > 10.1.1.5) ns3::UdpHeader (length: 40 49153 > 1) Payload (size=32) ns3::EthernetTrailer (fcs=0)
+ 0.0625 /NodeList/1/DeviceList/0/$ns3::CsmaNetDevice/TxQueue/Enqueue ns3::EthernetHeader ( length/type=0x800, source=00:00:00:00:00:4a, destination=00:00:00:00:00:4e) ns3::Ipv4Header (tos 0x0 DSCP Default ECN Not-ECT ttl 64 id 2 protocol 17 offset (bytes) 0 flags [none] length: 60 10.1.1.2 > 10.1.1.6) ns3::UdpHeader (length: 40 49153 > 2) Payload (size=32) ns3::EthernetTrailer (fcs=0)
- 0.0625 /NodeList/1/DeviceList/0/$ns3::CsmaNetDevice/TxQueue/Dequeue ns3::EthernetHeader ( length/type=0x800, source=00:00:00:00:00:4a, destination=00:00:00:00:00:4e) ns3::Ipv4Header (tos 0x0 DSCP Default ECN Not-ECT ttl 64 id 2 protocol 17 offset (bytes) 0 flags [none] length: 60 10.1.1.2 > 10.1.1.6) ns3::UdpHeader (length: 40 49153 > 2) Payload (size=32) ns3::EthernetTrailer (fcs=0)
+ 0.0625 /NodeList/6/DeviceList/0/$ns3::CsmaNetDevice/TxQueue/Enqueue ns3::EthernetHeader ( length/type=0x800, source=00:00:00:00:00:4f, destination=00:00:00:00:00:4b) ns3::Ipv4Header (tos 0x0 DSCP Default ECN Not-ECT ttl 64 id 2 protocol 17 offset (bytes) 0 flags [none] length: 60 10.1.1.7 > 10.1.1.3) ns3::UdpHeader (length: 40 49153 > 3) Payload (size=32) ns3::EthernetTrailer (fcs=0)
+ 0.0625 /NodeList/7/DeviceList/0/$ns3::CsmaNetDevice/TxQueue/Enqueue ns3::EthernetHeader ( length/type=0x800, source=00:00:00:00:00:50, destination=00:00:00:00:00:4c) ns3::Ipv4Header (tos 0x0 DSCP Default ECN Not-ECT ttl 64 id 2 protocol 17 offset (bytes) 0 flags [none] length: 60 10.1.1.8 > 10.1.1.4) ns3::UdpHeader (length: 40 49153 > 4) Payload (size=32) ns3::EthernetTrailer (fcs=0)
- 0.0625 /NodeList/7/DeviceList/0/$ns3::CsmaNetDevice/TxQueue/Dequeue ns3::EthernetHeader ( length/type=0x800, source=00:00:00:00:00:50, destination=00:00:00:00:00:4c) ns3::Ipv4Header (tos 0x0 DSCP Default ECN Not-ECT ttl 64 id 2 protocol 17 offset (bytes) 0 flags [none] length: 60 10.1.1.8 > 10.1.1.4) ns3::UdpHeader (length: 40 49153 > 4) Payload (size=32) ns3::EthernetTrailer (fcs=0)
- 0.0627721 /NodeList/6/DeviceList/0/$ns3::CsmaNetDevice/TxQueue/Dequeue ns3::EthernetHeader ( length/type=0x800, source=00:00:00:00:00:4f, destination=00:00:00:00:00:4b) ns3::Ipv4Header (tos 0x0 DSCP Default ECN Not-ECT ttl 64 id 1 protocol 17 offset (bytes) 0 flags [none] length: 60 10.1.1.7 > 10.1.1.3) ns3::UdpHeader (length: 40 49153 > 3) Payload (size=32) ns3::EthernetTrailer (fcs=0)
r 0.0646784 /NodeList/2/DeviceList/0/$ns3::CsmaNetDevice/MacRx ns3::EthernetHeader ( length/type=0x800, source=00:00:00:00:00:4f, destination=00:00:00:00:00:4b) ns3::Ipv4Header (tos 0x0 DSCP Default ECN Not-ECT ttl 64 id 0 protocol 17 offset (bytes) 0 flags [none] length: 60 10.1.1.7 > 10.1.1.3) ns3::UdpHeader (length: 40 49153 > 3) Payload (size=32) ns3::EthernetTrailer (fcs=0)
r 0.0673564 /NodeList/3/DeviceList/0/$ns3::CsmaNetDevice/MacRx ns3::EthernetHeader ( length/type=0x800, source=00:00:00:00:00:50, destination=00:00:00:00:00:4c) ns3::Ipv4Header (tos 0x0 DSCP Default ECN Not-ECT ttl 64 id 2 protocol 17 offset (bytes) 0 flags [none] length: 60 10.1.1.8 > 10.1.1.4) ns3::UdpHeader (length: 40 49153 > 4) Payload (size=32) ns3::EthernetTrailer (fcs=0)
+ 0.0673564 /NodeList/3/DeviceList/0/$ns3::CsmaNetDevice/TxQueue/Enqueue ns3::EthernetHeader ( length/type=0x800, source=00:00:00:00:00:4c, destination=00:00:00:00:00:50) ns3::Ipv4Header (tos 0x0 DSCP Default ECN Not-ECT ttl 64 id 2 protocol 17 offset (bytes) 0 flags [none] length: 60 10.1.1.4 > 10.1.1.8) ns3::UdpHeader (length: 40 4 > 49153) Payload (size=32) ns3::EthernetTrailer (fcs=0)
r 0.0700589 /NodeList/1/DeviceList/0/$ns3::CsmaNetDevice/MacRx ns3::EthernetHeader ( length/type=0x800, source=00:00:00:00:00:4e, destination=00:00:00:00:00:4a) ns3::Ipv4Header (tos 0x0 DSCP Default ECN Not-ECT ttl 64 id 1 protocol 17 offset (bytes) 0 flags [none] length: 60 10.1.1.6 > 10.1.1.2) ns3::UdpHeader (length: 40 2 > 49153) Payload (size=32) ns3::EthernetTrailer (fcs=0)
- 0.0709254 /NodeList/3/DeviceList/0/$ns3::CsmaNetDevice/TxQueue/Dequeue ns3::EthernetHeader ( length/type=0x800, source=00:00:00:00:00:4c, destination=00:00:00:00:00:50) ns3::Ipv4Header (tos 0x0 DSCP Default ECN Not-ECT ttl 64 id 2 protocol 17 offset (bytes) 0 flags [none] length: 60 10.1.1.4 > 10.1.1.8) ns3::UdpHeader (length: 40 4 > 49153) Payload (size=32) ns3::EthernetTrailer (fcs=0)
r 0.0728316 /NodeList/7/DeviceList/0/$ns3::CsmaNetDevice/MacRx ns3::EthernetHeader ( length/type=0x800, source=00:00:00:00:00:4c, destination=00:00:00:00:00:50) ns3::Ipv4Header (tos 0x0 DSCP Default ECN Not-ECT ttl 64 id 1 protocol 17 offset (bytes) 0 flags [none] length: 60 10.1.1.4 > 10.1.1.8) ns3::UdpHeader (length: 40 4 > 49153) Payload (size=32) ns3::EthernetTrailer (fcs=0)
r 0.0755194 /NodeList/4/DeviceList/0/$ns3::CsmaNetDevice/MacRx ns3::EthernetHeader ( length/type=0x800, source=00:00:00:00:00:49, destination=00:00:00:00:00:4d) ns3::Ipv4Header (tos 0x0 DSCP Default ECN Not-ECT ttl 64 id 2 protocol 17 offset (bytes) 0 flags [none] length: 60 10.1.1.1 > 10.1.1.5) ns3::UdpHeader (length: 40 49153 > 1) Payload (size=32) ns3::EthernetTrailer (fcs=0)
+ 0.0755194 /NodeList/4/DeviceList/0/$ns3::CsmaNetDevice/TxQueue/Enqueue ns3::EthernetHeader ( length/type=0x800, source=00:00:00:00:00:4d, destination=00:00:00:00:00:49) ns3::Ipv4Header (tos 0x0 DSCP Default ECN Not-ECT ttl 64 id 2 protocol 17 offset (bytes) 0 flags [none] length: 60 10.1.1.5 > 10.1.1.1) ns3::UdpHeader (length: 40 1 > 49153) Payload (size=32) ns3::EthernetTrailer (fcs=0)
- 0.0755194 /NodeList/4/DeviceList/0/$ns3::CsmaNetDevice/TxQueue/Dequeue ns3::EthernetHeader ( length/type=0x800, source=00:00:00:00:00:4d, destination=00:00:00:00:00:49) ns3::Ipv4Header (tos 0x0 DSCP Default ECN Not-ECT ttl 64 id 2 protocol 17 offset (bytes) 0 flags [none] length: 60 10.1.1.5 > 10.1.1.1) ns3::UdpHeader (length: 40 1 > 49153) Payload (size=32) ns3::EthernetTrailer (fcs=0)
r 0.0781287 /NodeList/0/DeviceList/0/$ns3::CsmaNetDevice/MacRx ns3::EthernetHeader ( length/type=0x800, source=00:00:00:00:00:4d, destination=00:00:00:00:00:49) ns3::Ipv4Header (tos 0x0 DSCP Default ECN Not-ECT ttl 64 id 2 protocol 17 offset (bytes) 0 flags [none] length: 60 10.1.1.5 > 10.1.1.1) ns3::UdpHeader (length: 40 1 > 49153) Payload (size=32) ns3::EthernetTrailer (fcs=0)
r 0.0809887 /NodeList/7/DeviceList/0/$ns3::CsmaNetDevice/MacRx ns3::EthernetHeader ( length/type=0x800, source=00:00:00:00:00:4c, destination=00:00:00:00:00:50) ns3::Ipv4Header (tos 0x0 DSCP Default ECN Not-ECT ttl 64 id 2 protocol 17 offset (bytes) 0 flags [none] length: 60 10.1.1.4 > 10.1.1.8) ns3::UdpHeader (length: 40 4 > 49153) Payload (size=32) ns3::EthernetTrailer (fcs=0)
r 0.0836644 /NodeList/5/DeviceList/0/$ns3::CsmaNetDevice/MacRx ns3::EthernetHeader ( length/type=0x800, source=00:00:00:00:00:4a, destination=00:00:00:00:00:4e) ns3::Ipv4Header (tos 0x0 DSCP Default ECN Not-ECT ttl 64 id 2 protocol 17 offset (bytes) 0 flags [none] length: 60 10.1.1.2 > 10.1.1.6) ns3::UdpHeader (length: 40 49153 > 2) Payload (size=32) ns3::EthernetTrailer (fcs=0)
+ 0.0836644 /NodeList/5/DeviceList/0/$ns3::CsmaNetDevice/TxQueue/Enqueue ns3::EthernetHeader ( length/type=0x800, source=00:00:00:00:00:4e, destination=00:00:00:00:00:4a) ns3::Ipv4Header (tos 0x0 DSCP Default ECN Not-ECT ttl 64 id 2 protocol 17 offset (bytes) 0 flags [none] length: 60 10.1.1.6 > 10.1.1.2) ns3::UdpHeader (length: 40 2 > 49153) Payload (size=32) ns3::EthernetTrailer (fcs=0)
- 0.0836644 /NodeList/5/DeviceList/0/$ns3::CsmaNetDevice/TxQueue/Dequeue ns3::EthernetHeader ( length/type=0x800, source=00:00:00:00:00:4e, destination=00:00:00:00:00:4a) ns3::Ipv4Header (tos 0x0 DSCP Default ECN Not-ECT ttl 64 id 2 protocol 17 offset (bytes) 0 flags [none] length: 60 10.1.1.6 > 10.1.1.2) ns3::UdpHeader (length: 40 2 > 49153) Payload (size=32) ns3::EthernetTrailer (fcs=0)
r 0.0862737 /NodeList/1/DeviceList/0/$ns3::CsmaNetDevice/MacRx ns3::EthernetHeader ( length/type=0x800, source=00:00:00:00:00:4e, destination=00:00:00:00:00:4a) ns3::Ipv4Header (tos 0x0 DSCP Default ECN Not-ECT ttl 64 id 2 protocol 17 offset (bytes) 0 flags [none] length: 60 10.1.1.6 > 10.1.1.2) ns3::UdpHeader (length: 40 2 > 49153) Payload (size=32) ns3::EthernetTrailer (fcs=0)
- 0.0871172 /NodeList/6/DeviceList/0/$ns3::CsmaNetDevice/TxQueue/Dequeue ns3::EthernetHeader ( length/type=0x800, source=00:00:00:00:00:4f, destination=00:00:00:00:00:4b) ns3::Ipv4Header (tos 0x0 DSCP Default ECN Not-ECT ttl 64 id 2 protocol 17 offset (bytes) 0 flags [none] length: 60 10.1.1.7 > 10.1.1.3) ns3::UdpHeader (length: 40 49153 > 3) Payload (size=32) ns3::EthernetTrailer (fcs=0)
r 0.0890235 /NodeList/2/DeviceList/0/$ns3::CsmaNetDevice/MacRx ns3::EthernetHeader ( length/type=0x800, source=00:00:00:00:00:4f, destination=00:00:00:00:00:4b) ns3::Ipv4Header (tos 0x0 DSCP Default ECN Not-ECT ttl 64 id 1 protocol 17 offset (bytes) 0 flags [none] length: 60 10.1.1.7 > 10.1.1.3) ns3::UdpHeader (length: 40 49153 > 3) Payload (size=32) ns3::EthernetTrailer (fcs=0)
r 0.0916936 /NodeList/2/DeviceList/0/$ns3::CsmaNetDevice/MacRx ns3::EthernetHeader ( length/type=0x800, source=00:00:00:00:00:4f, destination=00:00:00:00:00:4b) ns3::Ipv4Header (tos 0x0 DSCP Default ECN Not-ECT ttl 64 id 2 protocol 17 offset (bytes) 0 flags [none] length: 60 10.1.1.7 > 10.1.1.3) ns3::UdpHeader (length: 40 49153 > 3) Payload (size=32) ns3::EthernetTrailer (fcs=0)
+ 0.09375 /NodeList/0/DeviceList/0/$ns3::CsmaNetDevice/TxQueue/Enqueue ns3::EthernetHeader ( length/type=0x800, source=00:00:00:00:00:49, destination=00:00:00:00:00:4d) ns3::Ipv4Header (tos 0x0 DSCP Default ECN Not-ECT ttl 64 id 3 protocol 17 offset (bytes) 0 flags [none] length: 60 10.1.1.1 > 10.1.1.5) ns3::UdpHeader (length: 40 49153 > 1) Payload (size=32) ns3::EthernetTrailer (fcs=0)
- 0.09375 /NodeList/0/DeviceList/0/$ns3::CsmaNetDevice/TxQueue/Dequeue ns3::EthernetHeader ( length/type=0x800, source=00:00:00:00:00:49, destination=00:00:00:00:00:4d) ns3::Ipv4Header (tos 0x0 DSCP Default ECN Not-ECT ttl 64 id 3 protocol 17 offset (bytes) 0 flags [none] length: 60 10.1.1.1 > 10.1.1.5) ns3::UdpHeader (length: 40 49153 > 1) Payload (size=32) ns3::EthernetTrailer (fcs=0)
+ 0.09375 /NodeList/1/DeviceList/0/$ns3::CsmaNetDevice/TxQueue/Enqueue ns3::EthernetHeader ( length/type=0x800, source=00:00:00:00:00:4a, destination=00:00:00:00:00:4e) ns3::Ipv4Header (tos 0x0 DSCP Default ECN Not-ECT ttl 64 id 3 protocol 17 offset (bytes) 0 flags [none] length: 60 10.1.1.2 > 10.1.1.6) ns3::UdpHeader (length: 40 49153 > 2) Payload (size=32) ns3::EthernetTrailer (fcs=0)
- 0.09375 /NodeList/1/DeviceList/0/$ns3::CsmaNetDevice/TxQueue/Dequeue ns3::EthernetHeader ( length/type=0x800, source=00:00:00:00:00:4a, destination=00:00:00:00:00:4e) ns3::Ipv4Header (tos 0x0 DSCP Default ECN Not-ECT ttl 64 id 3 protocol 17 offset (bytes) 0 flags [none] length: 60 10.1.1.2 > 10.1.1.6) ns3::UdpHeader (length: 40 49153 > 2) Payload (size=32) ns3::EthernetTrailer (fcs=0)
+ 0.09375 /NodeList/6/DeviceList/0/$ns3::CsmaNetDevice/TxQueue/Enqueue ns3::EthernetHeader ( length/type=0x800, source=00:00:00:00:00:4f, destination=00:00:00:00:00:4b) ns3::Ipv4Header (tos 0x0 DSCP Default ECN Not-ECT ttl 64 id 3 protocol 17 offset (bytes) 0 flags [none] length: 60 10.1.1.7 > 10.1.1.3) ns3::UdpHeader (length: 40 49153 > 3) Payload (size=32) ns3::EthernetTrailer (fcs=0)
- 0.09375 /NodeList/6/DeviceList/0/$ns3::CsmaNetDevice/TxQueue/Dequeue ns3::EthernetHeader ( length/type=0x800, source=00:00:00:00:00:4f, destination=00:00:00:00:00:4b) ns3::Ipv4Header (tos 0x0 DSCP Default ECN Not-ECT ttl 64 id 3 protocol 17 offset (bytes) 0 flags [none] length: 60 10.1.1.7 > 10.1.1.3) ns3::UdpHeader (length: 40 49153 > 3) Payload (size=32) ns3::EthernetTrailer (fcs=0)
+ 0.09375 /NodeList/7/DeviceList/0/$ns3::CsmaNetDevice/TxQueue/Enqueue ns3::EthernetHeader ( length/type=0x800, source=00:00:00:00:00:50, destination=00:00:00:00:00:4c) ns3::Ipv4Header (tos 0x0 DSCP Default ECN Not-ECT ttl 64 id 3 protocol 17 offset (bytes) 0 flags [none] length: 60 10.1.1.8 > 10.1.1.4) ns3::UdpHeader (length: 40 49153 > 4) Payload (size=32) ns3::EthernetTrailer (fcs=0)
- 0.09375 /NodeList/7/DeviceList/0/$ns3::CsmaNetDevice/TxQueue/Dequeue ns3::EthernetHeader ( length/type=0x800, source=00:00:00:00:00:50, destination=00:00:00:00:00:4c) ns3::Ipv4Header (tos 0x0 DSCP Default ECN Not-ECT ttl 64 id 3 protocol 17 offset (bytes) 0 flags [none] length: 60 10.1.1.8 > 10.1.1.4) ns3::UdpHeader (length: 40 49153 > 4) Payload (size=32) ns3::EthernetTrailer (fcs=0)
r 0.0969824 /NodeList/5/DeviceList/0/$ns3::CsmaNetDevice/MacRx ns3::EthernetHeader ( length/type=0x800, source=00:00:00:00:00:4a, destination=00:00:00:00:00:4e) ns3::Ipv4Header (tos 0x0 DSCP Default ECN Not-ECT ttl 64 id 3 protocol 17 offset (bytes) 0 flags [none] length: 60 10.1.1.2 > 10.1.1.6) ns3::UdpHeader (length: 40 49153 > 2) Payload (size=32) ns3::EthernetTrailer (fcs=0)
+ 0.0969824 /NodeList/5/DeviceList/0/$ns3::CsmaNetDevice/TxQueue/Enqueue ns3::EthernetHeader ( length/type=0x800, source=00:00:00:00:00:4e, destination=00:00:00:00:00:4a) ns3::Ipv4Header (tos 0x0 DSCP Default ECN Not-ECT ttl 64 id 3 protocol 17 offset (bytes) 0 flags [none] length: 60 10.1.1.6 > 10.1.1.2) ns3::UdpHeader (length: 40 2 > 49153) Payload (size=32) ns3::EthernetTrailer (fcs=0)
- 0.0969824 /NodeList/5/DeviceList/0/$ns3::CsmaNetDevice/TxQueue/Dequeue ns3::EthernetHeader ( length/type=0x800, source=00:00:00:00:00:4e, destination=00:00:00:00:00:4a) ns3::Ipv4Header (tos 0x0 DSCP Default ECN Not-ECT ttl 64 id 3 protocol 17 offset (bytes) 0 flags [none] length: 60 10.1.1.6 > 10.1.1.2) ns3::UdpHeader (length: 40 2 > 49153) Payload (size=32) ns3::EthernetTrailer (fcs=0)
r 0.0995917 /NodeList/1/DeviceList/0/$ns3::CsmaNetDevice/MacRx ns3::EthernetHeader ( length/type=0x800, source=00:00:00:00:00:4e, destination=00:00:00:00:00:4a) ns3::Ipv4Header (tos 0x0 DSCP Default ECN Not-ECT ttl 64 id 3 protocol 17 offset (bytes) 0 flags [none] length: 60 10.1.1.6 > 10.1.1.2) ns3::UdpHeader (length: 40 2 > 49153) Payload (size=32) ns3::EthernetTrailer (fcs=0)
r 0.10244 /NodeList/2/DeviceList/0/$ns3::CsmaNetDevice/MacRx ns3::EthernetHeader ( length/type=0x800, source=00:00:00:00:00:4f, destination=00:00:00:00:00:4b) ns3::Ipv4Header (tos 0x0 DSCP Default ECN Not-ECT ttl 64 id 3 protocol 17 offset (bytes) 0 flags [none] length: 60 10.1.1.7 > 10.1.1.3) ns3::UdpHeader (length: 40 49153 > 3) Payload (size=32) ns3::EthernetTrailer (fcs=0)
r 0.105244 /NodeList/3/DeviceList/0/$ns3::CsmaNetDevice/MacRx ns3::EthernetHeader ( length/type=0x800, source=00:00:00:00:00:50, destination=00:00:00:00:00:4c) ns3::Ipv4Header (tos 0x0 DSCP Default ECN Not-ECT ttl 64 id 3 protocol 17 offset (bytes) 0 flags [none] length: 60 10.1.1.8 > 10.1.1.4) ns3::UdpHeader (length: 40 49153 > 4) Payload (size=32) ns3::EthernetTrailer (fcs=0)