+ 0.005001 /NodeList/6/DeviceList/0/$ns3::CsmaNetDevice/TxQueue/Enqueue ns3::EthernetHeader ( length/type=0x800, source=00:00:00:00:00:07, destination=00:00:00:00:00:03) ns3::Ipv4Header (tos 0x0 DSCP Default ECN Not-ECT ttl 64 id 0 protocol 17 offset (bytes) 0 flags [none] length: 60 10.1.1.7 > 10.1.1.3) ns3::UdpHeader (length: 40 49153 > 3) Payload (size=32) ns3::EthernetTrailer (fcs=0)
- 0.005001 /NodeList/6/DeviceList/0/$ns3::CsmaNetDevice/TxQueue/Dequeue ns3::EthernetHeader ( length/type=0x800, source=00:00:00:00:00:07, destination=00:00:00:00:00:03) ns3::Ipv4Header (tos 0x0 DSCP Default ECN Not-ECT ttl 64 id 0 protocol 17 offset (bytes) 0 flags [none] length: 60 10.1.1.7 > 10.1.1.3) ns3::UdpHeader (length: 40 49153 > 3) Payload (size=32) ns3::EthernetTrailer (fcs=0)
r 0.00761137 /NodeList/2/DeviceList/0/$ns3::CsmaNetDevice/MacRx ns3::EthernetHeader ( length/type=0x800, source=00:00:00:00:00:07, destination=00:00:00:00:00:03) ns3::Ipv4Header (tos 0x0 DSCP Default ECN Not-ECT ttl 64 id 0 protocol 17 offset (bytes) 0 flags [none] length: 60 10.1.1.7 > 10.1.1.3) ns3::UdpHeader (length: 40 49153 > 3) Payload (size=32) ns3::EthernetTrailer (fcs=0)
+ 0.012753 /NodeList/0/DeviceList/0/$ns3::CsmaNetDevice/TxQueue/Enqueue ns3::EthernetHeader ( length/type=0x800, source=00:00:00:00:00:01, destination=00:00:00:00:00:05) ns3::Ipv4Header (tos 0x0 DSCP Default ECN Not-ECT ttl 64 id 0 protocol 17 offset (bytes) 0 flags [none] length: 60 10.1.1.1 > 10.1.1.5) ns3::UdpHeader (length: 40 49153 > 1) Payload (size=32) ns3::EthernetTrailer (fcs=0)
- 0.012753 /NodeList/0/DeviceList/0/$ns3::CsmaNetDevice/TxQueue/Dequeue ns3::EthernetHeader ( length/type=0x800, source=00:00:00:00:00:01, destination=00:00:00:00:00:05) ns3::Ipv4Header (tos 0x0 DSCP Default ECN Not-ECT ttl 64 id 0 protocol 17 offset (bytes) 0 flags [none] length: 60 10.1.1.1 > 10.1.1.5) ns3::UdpHeader (length: 40 49153 > 1) Payload (size=32) ns3::EthernetTrailer (fcs=0)
r 0.0153634 /NodeList/4/DeviceList/0/$ns3::CsmaNetDevice/MacRx ns3::EthernetHeader ( length/type=0x800, source=00:00:00:00:00:01, destination=00:00:00:00:00:05) ns3::Ipv4Header (tos 0x0 DSCP Default ECN Not-ECT ttl 64 id 0 protocol 17 offset (bytes) 0 flags [none] length: 60 10.1.1.1 > 10.1.1.5) ns3::UdpHeader (length: 40 49153 > 1) Payload (size=32) ns3::EthernetTrailer (fcs=0)
+ 0.020425 /NodeList/7/DeviceList/0/$ns3::CsmaNetDevice/TxQueue/Enqueue ns3::EthernetHeader ( length/type=0x800, source=00:00:00:00:00:08, destination=00:00:00:00:00:04) ns3::Ipv4Header (tos 0x0 DSCP Default ECN Not-ECT ttl 64 id 0 protocol 17 offset (bytes) 0 flags [none] length: 60 10.1.1.8 > 10.1.1.4) ns3::UdpHeader (length: 40 49153 > 4) Payload (size=32) ns3::EthernetTrailer (fcs=0)
- 0.020425 /NodeList/7/DeviceList/0/$ns3::CsmaNetDevice/TxQueue/Dequeue ns3::EthernetHeader ( length/type=0x800, source=00:00:00:00:00:08, destination=00:00:00:00:00:04) ns3::Ipv4Header (tos 0x0 DSCP Default ECN Not-ECT ttl 64 id 0 protocol 17 offset (bytes) 0 flags [none] length: 60 10.1.1.8 > 10.1.1.4) ns3::UdpHeader (length: 40 49153 > 4) Payload (size=32) ns3::EthernetTrailer (fcs=0)
r 0.0230354 /NodeList/3/DeviceList/0/$ns3::CsmaNetDevice/MacRx ns3::EthernetHeader ( length/type=0x800, source=00:00:00:00:00:08, destination=00:00:00:00:00:04) ns3::Ipv4Header (tos 0x0 DSCP Default ECN Not-ECT ttl 64 id 0 protocol 17 offset (bytes) 0 flags [none] length: 60 10.1.1.8 > 10.1.1.4) ns3::UdpHeader (length: 40 49153 > 4) Payload (size=32) ns3::EthernetTrailer (fcs=0)
+ 0.0281154 /NodeList/2/DeviceList/0/$ns3::CsmaNetDevice/TxQueue/Enqueue ns3::EthernetHeader ( length/type=0x800, source=00:00:00:00:00:03, destination=00:00:00:00:00:07) ns3::Ipv4Header (tos 0x0 DSCP Default ECN Not-ECT ttl 64 id 0 protocol 17 offset (bytes) 0 flags [none] length: 60 10.1.1.3 > 10.1.1.7) ns3::UdpHeader (length: 40 3 > 49153) Payload (size=32) ns3::EthernetTrailer (fcs=0)
- 0.0281154 /NodeList/2/DeviceList/0/$ns3::CsmaNetDevice/TxQueue/Dequeue ns3::EthernetHeader ( length/type=0x800, source=00:00:00:00:00:03, destination=00:00:00:00:00:07) ns3::Ipv4Header (tos 0x0 DSCP Default ECN Not-ECT ttl 64 id 0 protocol 17 offset (bytes) 0 flags [none] length: 60 10.1.1.3 > 10.1.1.7) ns3::UdpHeader (length: 40 3 > 49153) Payload (size=32) ns3::EthernetTrailer (fcs=0)
r 0.0307257 /NodeList/6/DeviceList/0/$ns3::CsmaNetDevice/MacRx ns3::EthernetHeader ( length/type=0x800, source=00:00:00:00:00:03, destination=00:00:00:00:00:07) ns3::Ipv4Header (tos 0x0 DSCP Default ECN Not-ECT ttl 64 id 0 protocol 17 offset (bytes) 0 flags [none] length: 60 10.1.1.3 > 10.1.1.7) ns3::UdpHeader (length: 40 3 > 49153) Payload (size=32) ns3::EthernetTrailer (fcs=0)
+ 0.03125 /NodeList/0/DeviceList/0/$ns3::CsmaNetDevice/TxQueue/Enqueue ns3::EthernetHeader ( length/type=0x800, source=00:00:00:00:00:01, destination=00:00:00:00:00:05) ns3::Ipv4Header (tos 0x0 DSCP Default ECN Not-ECT ttl 64 id 1 protocol 17 offset (bytes) 0 flags [none] length: 60 10.1.1.1 > 10.1.1.5) ns3::UdpHeader (length: 40 49153 > 1) Payload (size=32) ns3::EthernetTrailer (fcs=0)
- 0.03125 /NodeList/0/DeviceList/0/$ns3::CsmaNetDevice/TxQueue/Dequeue ns3::EthernetHeader ( length/type=0x800, source=00:00:00:00:00:01, destination=00:00:00:00:00:05) ns3::Ipv4Header (tos 0x0 DSCP Default ECN Not-ECT ttl 64 id 1 protocol 17 offset (bytes) 0 flags [none] length: 60 10.1.1.1 > 10.1.1.5) ns3::UdpHeader (length: 40 49153 > 1) Payload (size=32) ns3::EthernetTrailer (fcs=0)
+ 0.03125 /NodeList/6/DeviceList/0/$ns3::CsmaNetDevice/TxQueue/Enqueue ns3::EthernetHeader ( length/type=0x800, source=00:00:00:00:00:07, destination=00:00:00:00:00:03) ns3::Ipv4Header (tos 0x0 DSCP Default ECN Not-ECT ttl 64 id 1 protocol 17 offset (bytes) 0 flags [none] length: 60 10.1.1.7 > 10.1.1.3) ns3::UdpHeader (length: 40 49153 > 3) Payload (size=32) ns3::EthernetTrailer (fcs=0)
- 0.03125 /NodeList/6/DeviceList/0/$ns3::CsmaNetDevice/TxQueue/Dequeue ns3::EthernetHeader ( length/type=0x800, source=00:00:00:00:00:07, destination=00:00:00:00:00:03) ns3::Ipv4Header (tos 0x0 DSCP Default ECN Not-ECT ttl 64 id 1 protocol 17 offset (bytes) 0 flags [none] length: 60 10.1.1.7 > 10.1.1.3) ns3::UdpHeader (length: 40 49153 > 3) Payload (size=32) ns3::EthernetTrailer (fcs=0)
+ 0.03125 /NodeList/7/DeviceList/0/$ns3::CsmaNetDevice/TxQueue/Enqueue ns3::EthernetHeader ( length/type=0x800, source=00:00:00:00:00:08, destination=00:00:00:00:00:04) ns3::Ipv4Header (tos 0x0 DSCP Default ECN Not-ECT ttl 64 id 1 protocol 17 offset (bytes) 0 flags [none] length: 60 10.1.1.8 > 10.1.1.4) ns3::UdpHeader (length: 40 49153 > 4) Payload (size=32) ns3::EthernetTrailer (fcs=0)
- 0.03125 /NodeList/7/DeviceList/0/$ns3::CsmaNetDevice/TxQueue/Dequeue ns3::EthernetHeader ( length/type=0x800, source=00:00:00:00:00:08, destination=00:00:00:00:00:04) ns3::Ipv4Header (tos 0x0 DSCP Default ECN Not-ECT ttl 64 id 1 protocol 17 offset (bytes) 0 flags [none] length: 60 10.1.1.8 > 10.1.1.4) ns3::UdpHeader (length: 40 49153 > 4) Payload (size=32) ns3::EthernetTrailer (fcs=0)
r 0.0359284 /NodeList/3/DeviceList/0/$ns3::CsmaNetDevice/MacRx ns3::EthernetHeader ( length/type=0x800, source=00:00:00:00:00:08, destination=00:00:00:00:00:04) ns3::Ipv4Header (tos 0x0 DSCP Default ECN Not-ECT ttl 64 id 1 protocol 17 offset (bytes) 0 flags [none] length: 60 10.1.1.8 > 10.1.1.4) ns3::UdpHeader (length: 40 49153 > 4) Payload (size=32) ns3::EthernetTrailer (fcs=0)
+ 0.040952 /NodeList/1/DeviceList/0/$ns3::CsmaNetDevice/TxQueue/Enqueue ns3::EthernetHeader ( length/type=0x800, source=00:00:00:00:00:02, destination=00:00:00:00:00:06) ns3::Ipv4Header (tos 0x0 DSCP Default ECN Not-ECT ttl 64 id 0 protocol 17 offset (bytes) 0 flags [none] length: 60 10.1.1.2 > 10.1.1.6) ns3::UdpHeader (length: 40 49153 > 2) Payload (size=32) ns3::EthernetTrailer (fcs=0)
- 0.040952 /NodeList/1/DeviceList/0/$ns3::CsmaNetDevice/TxQueue/Dequeue ns3::EthernetHeader ( length/type=0x800, source=00:00:00:00:00:02, destination=00:00:00:00:00:06) ns3::Ipv4Header (tos 0x0 DSCP Default ECN Not-ECT ttl 64 id 0 protocol 17 offset (bytes) 0 flags [none] length: 60 10.1.1.2 > 10.1.1.6) ns3::UdpHeader (length: 40 49153 > 2) Payload (size=32) ns3::EthernetTrailer (fcs=0)
+ 0.040952 /NodeList/1/DeviceList/0/$ns3::CsmaNetDevice/TxQueue/Enqueue ns3::EthernetHeader ( length/type=0x800, source=00:00:00:00:00:02, destination=00:00:00:00:00:06) ns3::Ipv4Header (tos 0x0 DSCP Default ECN Not-ECT ttl 64 id 1 protocol 17 offset (bytes) 0 flags [none] length: 60 10.1.1.2 > 10.1.1.6) ns3::UdpHeader (length: 40 49153 > 2) Payload (size=32) ns3::EthernetTrailer (fcs=0)
- 0.0416561 /NodeList/1/DeviceList/0/$ns3::CsmaNetDevice/TxQueue/Dequeue ns3::EthernetHeader ( length/type=0x800, source=00:00:00:00:00:02, destination=00:00:00:00:00:06) ns3::Ipv4Header (tos 0x0 DSCP Default ECN Not-ECT ttl 64 id 1 protocol 17 offset (bytes) 0 flags [none] length: 60 10.1.1.2 > 10.1.1.6) ns3::UdpHeader (length: 40 49153 > 2) Payload (size=32) ns3::EthernetTrailer (fcs=0)
r 0.0435624 /NodeList/5/DeviceList/0/$ns3::CsmaNetDevice/MacRx ns3::EthernetHeader ( length/type=0x800, source=00:00:00:00:00:02, destination=00:00:00:00:00:06) ns3::Ipv4Header (tos 0x0 DSCP Default ECN Not-ECT ttl 64 id 0 protocol 17 offset (bytes) 0 flags [none] length: 60 10.1.1.2 > 10.1.1.6) ns3::UdpHeader (length: 40 49153 > 2) Payload (size=32) ns3::EthernetTrailer (fcs=0)
r 0.0462734 /NodeList/4/DeviceList/0/$ns3::CsmaNetDevice/MacRx ns3::EthernetHeader ( length/type=0x800, source=00:00:00:00:00:01, destination=00:00:00:00:00:05) ns3::Ipv4Header (tos 0x0 DSCP Default ECN Not-ECT ttl 64 id 1 protocol 17 offset (bytes) 0 flags [none] length: 60 10.1.1.1 > 10.1.1.5) ns3::UdpHeader (length: 40 49153 > 1) Payload (size=32) ns3::EthernetTrailer (fcs=0)
r 0.0492345 /NodeList/5/DeviceList/0/$ns3::CsmaNetDevice/MacRx ns3::EthernetHeader ( length/type=0x800, source=00:00:00:00:00:02, destination=00:00:00:00:00:06) ns3::Ipv4Header (tos 0x0 DSCP Default ECN Not-ECT ttl 64 id 1 protocol 17 offset (bytes) 0 flags [none] length: 60 10.1.1.2 > 10.1.1.6) ns3::UdpHeader (length: 40 49153 > 2) Payload (size=32) ns3::EthernetTrailer (fcs=0)
+ 0.0542724 /NodeList/4/DeviceList/0/$ns3::CsmaNetDevice/TxQueue/Enqueue ns3::EthernetHeader ( length/type=0x800, source=00:00:00:00:00:05, destination=00:00:00:00:00:01) ns3::Ipv4Header (tos 0x0 DSCP Default ECN Not-ECT ttl 64 id 0 protocol 17 offset (bytes) 0 flags [none] length: 60 10.1.1.5 > 10.1.1.1) ns3::UdpHeader (length: 40 1 > 49153) Payload (size=32) ns3::EthernetTrailer (fcs=0)
- 0.0542724 /NodeList/4/DeviceList/0/$ns3::CsmaNetDevice/TxQueue/Dequeue ns3::EthernetHeader ( length/type=0x800, source=00:00:00:00:00:05, destination=00:00:00:00:00:01) ns3::Ipv4Header (tos 0x0 DSCP Default ECN Not-ECT ttl 64 id 0 protocol 17 offset (bytes) 0 flags [none] length: 60 10.1.1.5 > 10.1.1.1) ns3::UdpHeader (length: 40 1 > 49153) Payload (size=32) ns3::EthernetTrailer (fcs=0)
+ 0.0542724 /NodeList/4/DeviceList/0/$ns3::CsmaNetDevice/TxQueue/Enqueue ns3::EthernetHeader ( length/type=0x800, source=00:00:00:00:00:05, destination=00:00:00:00:00:01) ns3::Ipv4Header (tos 0x0 DSCP Default ECN Not-ECT ttl 64 id 1 protocol 17 offset (bytes) 0 flags [none] length: 60 10.1.1.5 > 10.1.1.1) ns3::UdpHeader (length: 40 1 > 49153) Payload (size=32) ns3::EthernetTrailer (fcs=0)
- 0.0549765 /NodeList/4/DeviceList/0/$ns3::CsmaNetDevice/TxQueue/Dequeue ns3::EthernetHeader ( length/type=0x800, source=00:00:00:00:00:05, destination=00:00:00:00:00:01) ns3::Ipv4Header (tos 0x0 DSCP Default ECN Not-ECT ttl 64 id 1 protocol 17 offset (bytes) 0 flags [none] length: 60 10.1.1.5 > 10.1.1.1) ns3::UdpHeader (length: 40 1 > 49153) Payload (size=32) ns3::EthernetTrailer (fcs=0)
r 0.0568827 /NodeList/0/DeviceList/0/$ns3::CsmaNetDevice/MacRx ns3::EthernetHeader ( length/type=0x800, source=00:00:00:00:00:05, destination=00:00:00:00:00:01) ns3::Ipv4Header (tos 0x0 DSCP Default ECN Not-ECT ttl 64 id 0 protocol 17 offset (bytes) 0 flags [none] length: 60 10.1.1.5 > 10.1.1.1) ns3::UdpHeader (length: 40 1 > 49153) Payload (size=32) ns3::EthernetTrailer (fcs=0)
r 0.0596429 /NodeList/0/DeviceList/0/$ns3::CsmaNetDevice/MacRx ns3::EthernetHeader ( length/type=0x800, source=00:00:00:00:00:05, destination=00:00:00:00:00:01) ns3::Ipv4Header (tos 0x0 DSCP Default ECN Not-ECT ttl 64 id 1 protocol 17 offset (bytes) 0 flags [none] length: 60 10.1.1.5 > 10.1.1.1) ns3::UdpHeader (length: 40 1 > 49153) Payload (size=32) ns3::EthernetTrailer (fcs=0)
+ 0.0625 /NodeList/0/DeviceList/0/$ns3::CsmaNetDevice/TxQueue/Enqueue ns3::EthernetHeader ( length/type=0x800, source=00:00:00:00:00:01, destination=00:00:00:00:00:05) ns3::Ipv4Header (tos 0x0 DSCP Default ECN Not-ECT ttl 64 id 2 protocol 17 offset (bytes) 0 flags [none] length: 60 10.1.1.1 > 10.1.1.5) ns3::UdpHeader (length: 40 49153 > 1) Payload (size=32) ns3::EthernetTrailer (fcs=0)
- 0.0625 /NodeList/0/DeviceList/0/$ns3::CsmaNetDevice/TxQueue/Dequeue ns3::EthernetHeader ( length/type=0x800, source=00:00:00:00:00:01, destination=00:00:00:00:00:05) ns3::Ipv4Header (tos 0x0 DSCP Default ECN Not-ECT ttl 64 id 2 protocol 17 offset (bytes) 0 flags [none] length: 60 10.1.1.1 > 10.1.1.5) ns3::UdpHeader (length: 40 49153 > 1) Payload (size=32) ns3::EthernetTrailer (fcs=0)
+ 0.0625 /NodeList/1/DeviceList/0/$ns3::CsmaNetDevice/TxQueue/Enqueue ns3::EthernetHeader ( length/type=0x800, source=00:00:00:00:00:02, destination=00:00:00:00:00:06) ns3::Ipv4Header (tos 0x0 DSCP Default ECN Not-ECT ttl 64 id 2 protocol 17 offset (bytes) 0 flags [none] length: 60 10.1.1.2 > 10.1.1.6) ns3::UdpHeader (length: 40 49153 > 2) Payload (size=32) ns3::EthernetTrailer (fcs=0)
+ 0.0625 /NodeList/6/DeviceList/0/$ns3::CsmaNetDevice/TxQueue/Enqueue ns3::EthernetHeader ( length/type=0x800, source=00:00:00:00:00:07, destination=00:00:00:00:00:03) ns3::Ipv4Header (tos 0x0 DSCP Default ECN Not-ECT ttl 64 id 2 protocol 17 offset (bytes) 0 flags [none] length: 60 10.1.1.7 > 10.1.1.3) ns3::UdpHeader (length: 40 49153 > 3) Payload (size=32) ns3::EthernetTrailer (fcs=0)
+ 0.0625 /NodeList/7/DeviceList/0/$ns3::CsmaNetDevice/TxQueue/Enqueue ns3::EthernetHeader ( length/type=0x800, source=00:00:00:00:00:08, destination=00:00:00:00:00:04) ns3::Ipv4Header (tos 0x0 DSCP Default ECN Not-ECT ttl 64 id 2 protocol 17 offset (bytes) 0 flags [none] length: 60 10.1.1.8 > 10.1.1.4) ns3::UdpHeader (length: 40 49153 > 4) Payload (size=32) ns3::EthernetTrailer (fcs=0)
- 0.0627791 /NodeList/1/DeviceList/0/$ns3::CsmaNetDevice/TxQueue/Dequeue ns3::EthernetHeader ( length/type=0x800, source=00:00:00:00:00:02, destination=00:00:00:00:00:06) ns3::Ipv4Header (tos 0x0 DSCP Default ECN Not-ECT ttl 64 id 2 protocol 17 offset (bytes) 0 flags [none] length: 60 10.1.1.2 > 10.1.1.6) ns3::UdpHeader (length: 40 49153 > 2) Payload (size=32) ns3::EthernetTrailer (fcs=0)
+ 0.0646854 /NodeList/5/DeviceList/0/$ns3::CsmaNetDevice/TxQueue/Enqueue ns3::EthernetHeader ( length/type=0x800, source=00:00:00:00:00:06, destination=00:00:00:00:00:02) ns3::Ipv4Header (tos 0x0 DSCP Default ECN Not-ECT ttl 64 id 0 protocol 17 offset (bytes) 0 flags [none] length: 60 10.1.1.6 > 10.1.1.2) ns3::UdpHeader (length: 40 2 > 49153) Payload (size=32) ns3::EthernetTrailer (fcs=0)
- 0.0646854 /NodeList/5/DeviceList/0/$ns3::CsmaNetDevice/TxQueue/Dequeue ns3::EthernetHeader ( length/type=0x800, source=00:00:00:00:00:06, destination=00:00:00:00:00:02) ns3::Ipv4Header (tos 0x0 DSCP Default ECN Not-ECT ttl 64 id 0 protocol 17 offset (bytes) 0 flags [none] length: 60 10.1.1.6 > 10.1.1.2) ns3::UdpHeader (length: 40 2 > 49153) Payload (size=32) ns3::EthernetTrailer (fcs=0)
+ 0.0646854 /NodeList/5/DeviceList/0/$ns3::CsmaNetDevice/TxQueue/Enqueue ns3::EthernetHeader ( length/type=0x800, source=00:00:00:00:00:06, destination=00:00:00:00:00:02) ns3::Ipv4Header (tos 0x0 DSCP Default ECN Not-ECT ttl 64 id 1 protocol 17 offset (bytes) 0 flags [none] length: 60 10.1.1.6 > 10.1.1.2) ns3::UdpHeader (length: 40 2 > 49153) Payload (size=32) ns3::EthernetTrailer (fcs=0)
- 0.0653895 /NodeList/5/DeviceList/0/$ns3::CsmaNetDevice/TxQueue/Dequeue ns3::EthernetHeader ( length/type=0x800, source=00:00:00:00:00:06, destination=00:00:00:00:00:02) ns3::Ipv4Header (tos 0x0 DSCP Default ECN Not-ECT ttl 64 id 1 protocol 17 offset (bytes) 0 flags [none] length: 60 10.1.1.6 > 10.1.1.2) ns3::UdpHeader (length: 40 2 > 49153) Payload (size=32) ns3::EthernetTrailer (fcs=0)
r 0.0672957 /NodeList/1/DeviceList/0/$ns3::CsmaNetDevice/MacRx ns3::EthernetHeader ( length/type=0x800, source=00:00:00:00:00:06, destination=00:00:00:00:00:02) ns3::Ipv4Header (tos 0x0 DSCP Default ECN Not-ECT ttl 64 id 0 protocol 17 offset (bytes) 0 flags [none] length: 60 10.1.1.6 > 10.1.1.2) ns3::UdpHeader (length: 40 2 > 49153) Payload (size=32) ns3::EthernetTrailer (fcs=0)
r 0.0699134 /NodeList/4/DeviceList/0/$ns3::CsmaNetDevice/MacRx ns3::EthernetHeader ( length/type=0x800, source=00:00:00:00:00:01, destination=00:00:00:00:00:05) ns3::Ipv4Header (tos 0x0 DSCP Default ECN Not-ECT ttl 64 id 2 protocol 17 offset (bytes) 0 flags [none] length: 60 10.1.1.1 > 10.1.1.5) ns3::UdpHeader (length: 40 49153 > 1) Payload (size=32) ns3::EthernetTrailer (fcs=0)
+ 0.0699134 /NodeList/4/DeviceList/0/$ns3::CsmaNetDevice/TxQueue/Enqueue ns3::EthernetHeader ( length/type=0x800, source=00:00:00:00:00:05, destination=00:00:00:00:00:01) ns3::Ipv4Header (tos 0x0 DSCP Default ECN Not-ECT ttl 64 id 2 protocol 17 offset (bytes) 0 flags [none] length: 60 10.1.1.5 > 10.1.1.1) ns3::UdpHeader (length: 40 1 > 49153) Payload (size=32) ns3::EthernetTrailer (fcs=0)
- 0.0699134 /NodeList/4/DeviceList/0/$ns3::CsmaNetDevice/TxQueue/Dequeue ns3::EthernetHeader ( length/type=0x800, source=00:00:00:00:00:05, destination=00:00:00:00:00:01) ns3::Ipv4Header (tos 0x0 DSCP Default ECN Not-ECT ttl 64 id 2 protocol 17 offset (bytes) 0 flags [none] length: 60 10.1.1.5 > 10.1.1.1) ns3::UdpHeader (length: 40 1 > 49153) Payload (size=32) ns3::EthernetTrailer (fcs=0)
r 0.0725227 /NodeList/0/DeviceList/0/$ns3::CsmaNetDevice/MacRx ns3::EthernetHeader ( length/type=0x800, source=00:00:00:00:00:05, destination=00:00:00:00:00:01) ns3::Ipv4Header (tos 0x0 DSCP Default ECN Not-ECT ttl 64 id 2 protocol 17 offset (bytes) 0 flags [none] length: 60 10.1.1.5 > 10.1.1.1) ns3::UdpHeader (length: 40 1 > 49153) Payload (size=32) ns3::EthernetTrailer (fcs=0)
r 0.0752695 /NodeList/5/DeviceList/0/$ns3::CsmaNetDevice/MacRx ns3::EthernetHeader ( length/type=0x800, source=00:00:00:00:00:02, destination=00:00:00:00:00:06) ns3::Ipv4Header (tos 0x0 DSCP Default ECN Not-ECT ttl 64 id 2 protocol 17 offset (bytes) 0 flags [none] length: 60 10.1.1.2 > 10.1.1.6) ns3::UdpHeader (length: 40 49153 > 2) Payload (size=32) ns3::EthernetTrailer (fcs=0)
+ 0.0752695 /NodeList/5/DeviceList/0/$ns3::CsmaNetDevice/TxQueue/Enqueue ns3::EthernetHeader ( length/type=0x800, source=00:00:00:00:00:06, destination=00:00:00:00:00:02) ns3::Ipv4Header (tos 0x0 DSCP Default ECN Not-ECT ttl 64 id 2 protocol 17 offset (bytes) 0 flags [none] length: 60 10.1.1.6 > 10.1.1.2) ns3::UdpHeader (length: 40 2 > 49153) Payload (size=32) ns3::EthernetTrailer (fcs=0)
- 0.0760791 /NodeList/6/DeviceList/0/$ns3::CsmaNetDevice/TxQueue/Dequeue ns3::EthernetHeader ( length/type=0x800, source=00:00:00:00:00:07, destination=00:00:00:00:00:03) ns3::Ipv4Header (tos 0x0 DSCP Default ECN Not-ECT ttl 64 id 2 protocol 17 offset (bytes) 0 flags [none] length: 60 10.1.1.7 > 10.1.1.3) ns3::UdpHeader (length: 40 49153 > 3) Payload (size=32) ns3::EthernetTrailer (fcs=0)
r 0.0779854 /NodeList/2/DeviceList/0/$ns3::CsmaNetDevice/MacRx ns3::EthernetHeader ( length/type=0x800, source=00:00:00:00:00:07, destination=00:00:00:00:00:03) ns3::Ipv4Header (tos 0x0 DSCP Default ECN Not-ECT ttl 64 id 1 protocol 17 offset (bytes) 0 flags [none] length: 60 10.1.1.7 > 10.1.1.3) ns3::UdpHeader (length: 40 49153 > 3) Payload (size=32) ns3::EthernetTrailer (fcs=0)
+ 0.0779854 /NodeList/2/DeviceList/0/$ns3::CsmaNetDevice/TxQueue/Enqueue ns3::EthernetHeader ( length/type=0x800, source=00:00:00:00:00:03, destination=00:00:00:00:00:07) ns3::Ipv4Header (tos 0x0 DSCP Default ECN Not-ECT ttl 64 id 1 protocol 17 offset (bytes) 0 flags [none] length: 60 10.1.1.3 > 10.1.1.7) ns3::UdpHeader (length: 40 3 > 49153) Payload (size=32) ns3::EthernetTrailer (fcs=0)
- 0.0779854 /NodeList/2/DeviceList/0/$ns3::CsmaNetDevice/TxQueue/Dequeue ns3::EthernetHeader ( length/type=0x800, source=00:00:00:00:00:03, destination=00:00:00:00:00:07) ns3::Ipv4Header (tos 0x0 DSCP Default ECN Not-ECT ttl 64 id 1 protocol 17 offset (bytes) 0 flags [none] length: 60 10.1.1.3 > 10.1.1.7) ns3::UdpHeader (length: 40 3 > 49153) Payload (size=32) ns3::EthernetTrailer (fcs=0)
r 0.0805947 /NodeList/6/DeviceList/0/$ns3::CsmaNetDevice/MacRx ns3::EthernetHeader ( length/type=0x800, source=00:00:00:00:00:03, destination=00:00:00:00:00:07) ns3::Ipv4Header (tos 0x0 DSCP Default ECN Not-ECT ttl 64 id 1 protocol 17 offset (bytes) 0 flags [none] length: 60 10.1.1.3 > 10.1.1.7) ns3::UdpHeader (length: 40 3 > 49153) Payload (size=32) ns3::EthernetTrailer (fcs=0)
r 0.0835325 /NodeList/2/DeviceList/0/$ns3::CsmaNetDevice/MacRx ns3::EthernetHeader ( length/type=0x800, source=00:00:00:00:00:07, destination=00:00:00:00:00:03) ns3::Ipv4Header (tos 0x0 DSCP Default ECN Not-ECT ttl 64 id 2 protocol 17 offset (bytes) 0 flags [none] length: 60 10.1.1.7 > 10.1.1.3) ns3::UdpHeader (length: 40 49153 > 3) Payload (size=32) ns3::EthernetTrailer (fcs=0)
+ 0.0835325 /NodeList/2/DeviceList/0/$ns3::CsmaNetDevice/TxQueue/Enqueue ns3::EthernetHeader ( length/type=0x800, source=00:00:00:00:00:03, destination=00:00:00:00:00:07) ns3::Ipv4Header (tos 0x0 DSCP Default ECN Not-ECT ttl 64 id 2 protocol 17 offset (bytes) 0 flags [none] length: 60 10.1.1.3 > 10.1.1.7) ns3::UdpHeader (length: 40 3 > 49153) Payload (size=32) ns3::EthernetTrailer (fcs=0)
- 0.0835325 /NodeList/2/DeviceList/0/$ns3::CsmaNetDevice/TxQueue/Dequeue ns3::EthernetHeader ( length/type=0x800, source=00:00:00:00:00:03, destination=00:00:00:00:00:07) ns3::Ipv4Header (tos 0x0 DSCP Default ECN Not-ECT ttl 64 id 2 protocol 17 offset (bytes) 0 flags [none] length: 60 10.1.1.3 > 10.1.1.7) ns3::UdpHeader (length: 40 3 > 49153) Payload (size=32) ns3::EthernetTrailer (fcs=0)
r 0.0861419 /NodeList/6/DeviceList/0/$ns3::CsmaNetDevice/MacRx ns3::EthernetHeader ( length/type=0x800, source=00:00:00:00:00:03, destination=00:00:00:00:00:07) ns3::Ipv4Header (tos 0x0 DSCP Default ECN Not-ECT ttl 64 id 2 protocol 17 offset (bytes) 0 flags [none] length: 60 10.1.1.3 > 10.1.1.7) ns3::UdpHeader (length: 40 3 > 49153) Payload (size=32) ns3::EthernetTrailer (fcs=0)
- 0.0871126 /NodeList/5/DeviceList/0/$ns3::CsmaNetDevice/TxQueue/Dequeue ns3::EthernetHeader ( length/type=0x800, source=00:00:00:00:00:06, destination=00:00:00:00:00:02) ns3::Ipv4Header (tos 0x0 DSCP Default ECN Not-ECT ttl 64 id 2 protocol 17 offset (bytes) 0 flags [none] length: 60 10.1.1.6 > 10.1.1.2) ns3::UdpHeader (length: 40 2 > 49153) Payload (size=32) ns3::EthernetTrailer (fcs=0)
r 0.0890189 /NodeList/1/DeviceList/0/$ns3::CsmaNetDevice/MacRx ns3::EthernetHeader ( length/type=0x800, source=00:00:00:00:00:06, destination=00:00:00:00:00:02) ns3::Ipv4Header (tos 0x0 DSCP Default ECN Not-ECT ttl 64 id 1 protocol 17 offset (bytes) 0 flags [none] length: 60 10.1.1.6 > 10.1.1.2) ns3::UdpHeader (length: 40 2 > 49153) Payload (size=32) ns3::EthernetTrailer (fcs=0)
- 0.0897449 /NodeList/7/DeviceList/0/$ns3::CsmaNetDevice/TxQueue/Dequeue ns3::EthernetHeader ( length/type=0x800, source=00:00:00:00:00:08, destination=00:00:00:00:00:04) ns3::Ipv4Header (tos 0x0 DSCP Default ECN Not-ECT ttl 64 id 2 protocol 17 offset (bytes) 0 flags [none] length: 60 10.1.1.8 > 10.1.1.4) ns3::UdpHeader (length: 40 49153 > 4) Payload (size=32) ns3::EthernetTrailer (fcs=0)
+ 0.0916511 /NodeList/3/DeviceList/0/$ns3::CsmaNetDevice/TxQueue/Enqueue ns3::EthernetHeader ( length/type=0x800, source=00:00:00:00:00:04, destination=00:00:00:00:00:08) ns3::Ipv4Header (tos 0x0 DSCP Default ECN Not-ECT ttl 64 id 0 protocol 17 offset (bytes) 0 flags [none] length: 60 10.1.1.4 > 10.1.1.8) ns3::UdpHeader (length: 40 4 > 49153) Payload (size=32) ns3::EthernetTrailer (fcs=0)
- 0.0916511 /NodeList/3/DeviceList/0/$ns3::CsmaNetDevice/TxQueue/Dequeue ns3::EthernetHeader ( length/type=0x800, source=00:00:00:00:00:04, destination=00:00:00:00:00:08) ns3::Ipv4Header (tos 0x0 DSCP Default ECN Not-ECT ttl 64 id 0 protocol 17 offset (bytes) 0 flags [none] length: 60 10.1.1.4 > 10.1.1.8) ns3::UdpHeader (length: 40 4 > 49153) Payload (size=32) ns3::EthernetTrailer (fcs=0)
+ 0.0916511 /NodeList/3/DeviceList/0/$ns3::CsmaNetDevice/TxQueue/Enqueue ns3::EthernetHeader ( length/type=0x800, source=00:00:00:00:00:04, destination=00:00:00:00:00:08) ns3::Ipv4Header (tos 0x0 DSCP Default ECN Not-ECT ttl 64 id 1 protocol 17 offset (bytes) 0 flags [none] length: 60 10.1.1.4 > 10.1.1.8) ns3::UdpHeader (length: 40 4 > 49153) Payload (size=32) ns3::EthernetTrailer (fcs=0)
- 0.0923552 /NodeList/3/DeviceList/0/$ns3::CsmaNetDevice/TxQueue/Dequeue ns3::EthernetHeader ( length/type=0x800, source=00:00:00:00:00:04, destination=00:00:00:00:00:08) ns3::Ipv4Header (tos 0x0 DSCP Default ECN Not-ECT ttl 64 id 1 protocol 17 offset (bytes) 0 flags [none] length: 60 10.1.1.4 > 10.1.1.8) ns3::UdpHeader (length: 40 4 > 49153) Payload (size=32) ns3::EthernetTrailer (fcs=0)
+ 0.09375 /NodeList/0/DeviceList/0/$ns3::CsmaNetDevice/TxQueue/Enqueue ns3::EthernetHeader ( length/type=0x800, source=00:00:00:00:00:01, destination=00:00:00:00:00:05) ns3::Ipv4Header (tos 0x0 DSCP Default ECN Not-ECT ttl 64 id 3 protocol 17 offset (bytes) 0 flags [none] length: 60 10.1.1.1 > 10.1.1.5) ns3::UdpHeader (length: 40 49153 > 1) Payload (size=32) ns3::EthernetTrailer (fcs=0)
- 0.09375 /NodeList/0/DeviceList/0/$ns3::CsmaNetDevice/TxQueue/Dequeue ns3::EthernetHeader ( length/type=0x800, source=00:00:00:00:00:01, destination=00:00:00:00:00:05) ns3::Ipv4Header (tos 0x0 DSCP Default ECN Not-ECT ttl 64 id 3 protocol 17 offset (bytes) 0 flags [none] length: 60 10.1.1.1 > 10.1.1.5) ns3::UdpHeader (length: 40 49153 > 1) Payload (size=32) ns3::EthernetTrailer (fcs=0)
+ 0.09375 /NodeList/1/DeviceList/0/$ns3::CsmaNetDevice/TxQueue/Enqueue ns3::EthernetHeader ( length/type=0x800, source=00:00:00:00:00:02, destination=00:00:00:00:00:06) ns3::Ipv4Header (tos 0x0 DSCP Default ECN Not-ECT ttl 64 id 3 protocol 17 offset (bytes) 0 flags [none] length: 60 10.1.1.2 > 10.1.1.6) ns3::UdpHeader (length: 40 49153 > 2) Payload (size=32) ns3::EthernetTrailer (fcs=0)
- 0.09375 /NodeList/1/DeviceList/0/$ns3::CsmaNetDevice/TxQueue/Dequeue ns3::EthernetHeader ( length/type=0x800, source=00:00:00:00:00:02, destination=00:00:00:00:00:06) ns3::Ipv4Header (tos 0x0 DSCP Default ECN Not-ECT ttl 64 id 3 protocol 17 offset (bytes) 0 flags [none] length: 60 10.1.1.2 > 10.1.1.6) ns3::UdpHeader (length: 40 49153 > 2) Payload (size=32) ns3::EthernetTrailer (fcs=0)
+ 0.09375 /NodeList/6/DeviceList/0/$ns3::CsmaNetDevice/TxQueue/Enqueue ns3::EthernetHeader ( length/type=0x800, source=00:00:00:00:00:07, destination=00:00:00:00:00:03) ns3::Ipv4Header (tos 0x0 DSCP Default ECN Not-ECT ttl 64 id 3 protocol 17 offset (bytes) 0 flags [none] length: 60 10.1.1.7 > 10.1.1.3) ns3::UdpHeader (length: 40 49153 > 3) Payload (size=32) ns3::EthernetTrailer (fcs=0)
- 0.09375 /NodeList/6/DeviceList/0/$ns3::CsmaNetDevice/TxQueue/Dequeue ns3::EthernetHeader ( length/type=0x800, source=00:00:00:00:00:07, destination=00:00:00:00:00:03) ns3::Ipv4Header (tos 0x0 DSCP Default ECN Not-ECT ttl 64 id 3 protocol 17 offset (bytes) 0 flags [none] length: 60 10.1.1.7 > 10.1.1.3) ns3::UdpHeader (length: 40 49153 > 3) Payload (size=32) ns3::EthernetTrailer (fcs=0)
+ 0.09375 /NodeList/7/DeviceList/0/$ns3::CsmaNetDevice/TxQueue/Enqueue ns3::EthernetHeader ( length/type=0x800, source=00:00:00:00:00:08, destination=00:00:00:00:00:04) ns3::Ipv4Header (tos 0x0 DSCP Default ECN Not-ECT ttl 64 id 3 protocol 17 offset (bytes) 0 flags [none] length: 60 10.1.1.8 > 10.1.1.4) ns3::UdpHeader (length: 40 49153 > 4) Payload (size=32) ns3::EthernetTrailer (fcs=0)
r 0.0942615 /NodeList/7/DeviceList/0/$ns3::CsmaNetDevice/MacRx ns3::EthernetHeader ( length/type=0x800, source=00:00:00:00:00:04, destination=00:00:00:00:00:08) ns3::Ipv4Header (tos 0x0 DSCP Default ECN Not-ECT ttl 64 id 0 protocol 17 offset (bytes) 0 flags [none] length: 60 10.1.1.4 > 10.1.1.8) ns3::UdpHeader (length: 40 4 > 49153) Payload (size=32) ns3::EthernetTrailer (fcs=0)
r 0.0969384 /NodeList/2/DeviceList/0/$ns3::CsmaNetDevice/MacRx ns3::EthernetHeader ( length/type=0x800, source=00:00:00:00:00:07, destination=00:00:00:00:00:03) ns3::Ipv4Header (tos 0x0 DSCP Default ECN Not-ECT ttl 64 id 3 protocol 17 offset (bytes) 0 flags [none] length: 60 10.1.1.7 > 10.1.1.3) ns3::UdpHeader (length: 40 49153 > 3) Payload (size=32) ns3::EthernetTrailer (fcs=0)
+ 0.0969384 /NodeList/2/DeviceList/0/$ns3::CsmaNetDevice/TxQueue/Enqueue ns3::EthernetHeader ( length/type=0x800, source=00:00:00:00:00:03, destination=00:00:00:00:00:07) ns3::Ipv4Header (tos 0x0 DSCP Default ECN Not-ECT ttl 64 id 3 protocol 17 offset (bytes) 0 flags [none] length: 60 10.1.1.3 > 10.1.1.7) ns3::UdpHeader (length: 40 3 > 49153) Payload (size=32) ns3::EthernetTrailer (fcs=0)
- 0.0969384 /NodeList/2/DeviceList/0/$ns3::CsmaNetDevice/TxQueue/Dequeue ns3::EthernetHeader ( length/type=0x800, source=00:00:00:00:00:03, destination=00:00:00:00:00:07) ns3::Ipv4Header (tos 0x0 DSCP Default ECN Not-ECT ttl 64 id 3 protocol 17 offset (bytes) 0 flags [none] length: 60 10.1.1.3 > 10.1.1.7) ns3::UdpHeader (length: 40 3 > 49153) Payload (size=32) ns3::EthernetTrailer (fcs=0)
r 0.0995477 /NodeList/6/DeviceList/0/$ns3::CsmaNetDevice/MacRx ns3::EthernetHeader ( length/type=0x800, source=00:00:00:00:00:03, destination=00:00:00:00:00:07) ns3::Ipv4Header (tos 0x0 DSCP Default ECN Not-ECT ttl 64 id 3 protocol 17 offset (bytes) 0 flags [none] length: 60 10.1.1.3 > 10.1.1.7) ns3::UdpHeader (length: 40 3 > 49153) Payload (size=32) ns3::EthernetTrailer (fcs=0)