+ 0.007001 /NodeList/1/DeviceList/0/$ns3::CsmaNetDevice/TxQueue/Enqueue ns3::EthernetHeader ( length/type=0x800, source=00:00:00:00:00:3a, destination=00:00:00:00:00:3e) ns3::Ipv4Header (tos 0x0 DSCP Default ECN Not-ECT ttl 64 id 0 protocol 17 offset (bytes) 0 flags [none] length: 60 10.1.1.2 > 10.1.1.6) ns3::UdpHeader (length: 40 49153 > 2) Payload (size=32) ns3::EthernetTrailer (fcs=0)
- 0.007001 /NodeList/1/DeviceList/0/$ns3::CsmaNetDevice/TxQueue/Dequeue ns3::EthernetHeader ( length/type=0x800, source=00:00:00:00:00:3a, destination=00:00:00:00:00:3e) ns3::Ipv4Header (tos 0x0 DSCP Default ECN Not-ECT ttl 64 id 0 protocol 17 offset (bytes) 0 flags [none] length: 60 10.1.1.2 > 10.1.1.6) ns3::UdpHeader (length: 40 49153 > 2) Payload (size=32) ns3::EthernetTrailer (fcs=0)
r 0.00961137 /NodeList/5/DeviceList/0/$ns3::CsmaNetDevice/MacRx ns3::EthernetHeader ( length/type=0x800, source=00:00:00:00:00:3a, destination=00:00:00:00:00:3e) ns3::Ipv4Header (tos 0x0 DSCP Default ECN Not-ECT ttl 64 id 0 protocol 17 offset (bytes) 0 flags [none] length: 60 10.1.1.2 > 10.1.1.6) ns3::UdpHeader (length: 40 49153 > 2) Payload (size=32) ns3::EthernetTrailer (fcs=0)
+ 0.0146124 /NodeList/5/DeviceList/0/$ns3::CsmaNetDevice/TxQueue/Enqueue ns3::EthernetHeader ( length/type=0x800, source=00:00:00:00:00:3e, destination=00:00:00:00:00:3a) ns3::Ipv4Header (tos 0x0 DSCP Default ECN Not-ECT ttl 64 id 0 protocol 17 offset (bytes) 0 flags [none] length: 60 10.1.1.6 > 10.1.1.2) ns3::UdpHeader (length: 40 2 > 49153) Payload (size=32) ns3::EthernetTrailer (fcs=0)
- 0.0146124 /NodeList/5/DeviceList/0/$ns3::CsmaNetDevice/TxQueue/Dequeue ns3::EthernetHeader ( length/type=0x800, source=00:00:00:00:00:3e, destination=00:00:00:00:00:3a) ns3::Ipv4Header (tos 0x0 DSCP Default ECN Not-ECT ttl 64 id 0 protocol 17 offset (bytes) 0 flags [none] length: 60 10.1.1.6 > 10.1.1.2) ns3::UdpHeader (length: 40 2 > 49153) Payload (size=32) ns3::EthernetTrailer (fcs=0)
r 0.0172227 /NodeList/1/DeviceList/0/$ns3::CsmaNetDevice/MacRx ns3::EthernetHeader ( length/type=0x800, source=00:00:00:00:00:3e, destination=00:00:00:00:00:3a) ns3::Ipv4Header (tos 0x0 DSCP Default ECN Not-ECT ttl 64 id 0 protocol 17 offset (bytes) 0 flags [none] length: 60 10.1.1.6 > 10.1.1.2) ns3::UdpHeader (length: 40 2 > 49153) Payload (size=32) ns3::EthernetTrailer (fcs=0)
+ 0.022273 /NodeList/7/DeviceList/0/$ns3::CsmaNetDevice/TxQueue/Enqueue ns3::EthernetHeader ( length/type=0x800, source=00:00:00:00:00:40, destination=00:00:00:00:00:3c) ns3::Ipv4Header (tos 0x0 DSCP Default ECN Not-ECT ttl 64 id 0 protocol 17 offset (bytes) 0 flags [none] length: 60 10.1.1.8 > 10.1.1.4) ns3::UdpHeader (length: 40 49153 > 4) Payload (size=32) ns3::EthernetTrailer (fcs=0)
- 0.022273 /NodeList/7/DeviceList/0/$ns3::CsmaNetDevice/TxQueue/Dequeue ns3::EthernetHeader ( length/type=0x800, source=00:00:00:00:00:40, destination=00:00:00:00:00:3c) ns3::Ipv4Header (tos 0x0 DSCP Default ECN Not-ECT ttl 64 id 0 protocol 17 offset (bytes) 0 flags [none] length: 60 10.1.1.8 > 10.1.1.4) ns3::UdpHeader (length: 40 49153 > 4) Payload (size=32) ns3::EthernetTrailer (fcs=0)
r 0.0248834 /NodeList/3/DeviceList/0/$ns3::CsmaNetDevice/MacRx ns3::EthernetHeader ( length/type=0x800, source=00:00:00:00:00:40, destination=00:00:00:00:00:3c) ns3::Ipv4Header (tos 0x0 DSCP Default ECN Not-ECT ttl 64 id 0 protocol 17 offset (bytes) 0 flags [none] length: 60 10.1.1.8 > 10.1.1.4) ns3::UdpHeader (length: 40 49153 > 4) Payload (size=32) ns3::EthernetTrailer (fcs=0)
+ 0.03007 /NodeList/0/DeviceList/0/$ns3::CsmaNetDevice/TxQueue/Enqueue ns3::EthernetHeader ( length/type=0x800, source=00:00:00:00:00:39, destination=00:00:00:00:00:3d) ns3::Ipv4Header (tos 0x0 DSCP Default ECN Not-ECT ttl 64 id 0 protocol 17 offset (bytes) 0 flags [none] length: 60 10.1.1.1 > 10.1.1.5) ns3::UdpHeader (length: 40 49153 > 1) Payload (size=32) ns3::EthernetTrailer (fcs=0)
- 0.03007 /NodeList/0/DeviceList/0/$ns3::CsmaNetDevice/TxQueue/Dequeue ns3::EthernetHeader ( length/type=0x800, source=00:00:00:00:00:39, destination=00:00:00:00:00:3d) ns3::Ipv4Header (tos 0x0 DSCP Default ECN Not-ECT ttl 64 id 0 protocol 17 offset (bytes) 0 flags [none] length: 60 10.1.1.1 > 10.1.1.5) ns3::UdpHeader (length: 40 49153 > 1) Payload (size=32) ns3::EthernetTrailer (fcs=0)
+ 0.03125 /NodeList/0/DeviceList/0/$ns3::CsmaNetDevice/TxQueue/Enqueue ns3::EthernetHeader ( length/type=0x800, source=00:00:00:00:00:39, destination=00:00:00:00:00:3d) ns3::Ipv4Header (tos 0x0 DSCP Default ECN Not-ECT ttl 64 id 1 protocol 17 offset (bytes) 0 flags [none] length: 60 10.1.1.1 > 10.1.1.5) ns3::UdpHeader (length: 40 49153 > 1) Payload (size=32) ns3::EthernetTrailer (fcs=0)
- 0.03125 /NodeList/0/DeviceList/0/$ns3::CsmaNetDevice/TxQueue/Dequeue ns3::EthernetHeader ( length/type=0x800, source=00:00:00:00:00:39, destination=00:00:00:00:00:3d) ns3::Ipv4Header (tos 0x0 DSCP Default ECN Not-ECT ttl 64 id 1 protocol 17 offset (bytes) 0 flags [none] length: 60 10.1.1.1 > 10.1.1.5) ns3::UdpHeader (length: 40 49153 > 1) Payload (size=32) ns3::EthernetTrailer (fcs=0)
+ 0.03125 /NodeList/1/DeviceList/0/$ns3::CsmaNetDevice/TxQueue/Enqueue ns3::EthernetHeader ( length/type=0x800, source=00:00:00:00:00:3a, destination=00:00:00:00:00:3e) ns3::Ipv4Header (tos 0x0 DSCP Default ECN Not-ECT ttl 64 id 1 protocol 17 offset (bytes) 0 flags [none] length: 60 10.1.1.2 > 10.1.1.6) ns3::UdpHeader (length: 40 49153 > 2) Payload (size=32) ns3::EthernetTrailer (fcs=0)
- 0.03125 /NodeList/1/DeviceList/0/$ns3::CsmaNetDevice/TxQueue/Dequeue ns3::EthernetHeader ( length/type=0x800, source=00:00:00:00:00:3a, destination=00:00:00:00:00:3e) ns3::Ipv4Header (tos 0x0 DSCP Default ECN Not-ECT ttl 64 id 1 protocol 17 offset (bytes) 0 flags [none] length: 60 10.1.1.2 > 10.1.1.6) ns3::UdpHeader (length: 40 49153 > 2) Payload (size=32) ns3::EthernetTrailer (fcs=0)
+ 0.03125 /NodeList/7/DeviceList/0/$ns3::CsmaNetDevice/TxQueue/Enqueue ns3::EthernetHeader ( length/type=0x800, source=00:00:00:00:00:40, destination=00:00:00:00:00:3c) ns3::Ipv4Header (tos 0x0 DSCP Default ECN Not-ECT ttl 64 id 1 protocol 17 offset (bytes) 0 flags [none] length: 60 10.1.1.8 > 10.1.1.4) ns3::UdpHeader (length: 40 49153 > 4) Payload (size=32) ns3::EthernetTrailer (fcs=0)
- 0.03125 /NodeList/7/DeviceList/0/$ns3::CsmaNetDevice/TxQueue/Dequeue ns3::EthernetHeader ( length/type=0x800, source=00:00:00:00:00:40, destination=00:00:00:00:00:3c) ns3::Ipv4Header (tos 0x0 DSCP Default ECN Not-ECT ttl 64 id 1 protocol 17 offset (bytes) 0 flags [none] length: 60 10.1.1.8 > 10.1.1.4) ns3::UdpHeader (length: 40 49153 > 4) Payload (size=32) ns3::EthernetTrailer (fcs=0)
r 0.0326804 /NodeList/4/DeviceList/0/$ns3::CsmaNetDevice/MacRx ns3::EthernetHeader ( length/type=0x800, source=00:00:00:00:00:39, destination=00:00:00:00:00:3d) ns3::Ipv4Header (tos 0x0 DSCP Default ECN Not-ECT ttl 64 id 0 protocol 17 offset (bytes) 0 flags [none] length: 60 10.1.1.1 > 10.1.1.5) ns3::UdpHeader (length: 40 49153 > 1) Payload (size=32) ns3::EthernetTrailer (fcs=0)
r 0.0353424 /NodeList/5/DeviceList/0/$ns3::CsmaNetDevice/MacRx ns3::EthernetHeader ( length/type=0x800, source=00:00:00:00:00:3a, destination=00:00:00:00:00:3e) ns3::Ipv4Header (tos 0x0 DSCP Default ECN Not-ECT ttl 64 id 1 protocol 17 offset (bytes) 0 flags [none] length: 60 10.1.1.2 > 10.1.1.6) ns3::UdpHeader (length: 40 49153 > 2) Payload (size=32) ns3::EthernetTrailer (fcs=0)
+ 0.0353424 /NodeList/5/DeviceList/0/$ns3::CsmaNetDevice/TxQueue/Enqueue ns3::EthernetHeader ( length/type=0x800, source=00:00:00:00:00:3e, destination=00:00:00:00:00:3a) ns3::Ipv4Header (tos 0x0 DSCP Default ECN Not-ECT ttl 64 id 1 protocol 17 offset (bytes) 0 flags [none] length: 60 10.1.1.6 > 10.1.1.2) ns3::UdpHeader (length: 40 2 > 49153) Payload (size=32) ns3::EthernetTrailer (fcs=0)
- 0.0353424 /NodeList/5/DeviceList/0/$ns3::CsmaNetDevice/TxQueue/Dequeue ns3::EthernetHeader ( length/type=0x800, source=00:00:00:00:00:3e, destination=00:00:00:00:00:3a) ns3::Ipv4Header (tos 0x0 DSCP Default ECN Not-ECT ttl 64 id 1 protocol 17 offset (bytes) 0 flags [none] length: 60 10.1.1.6 > 10.1.1.2) ns3::UdpHeader (length: 40 2 > 49153) Payload (size=32) ns3::EthernetTrailer (fcs=0)
r 0.0379517 /NodeList/1/DeviceList/0/$ns3::CsmaNetDevice/MacRx ns3::EthernetHeader ( length/type=0x800, source=00:00:00:00:00:3e, destination=00:00:00:00:00:3a) ns3::Ipv4Header (tos 0x0 DSCP Default ECN Not-ECT ttl 64 id 1 protocol 17 offset (bytes) 0 flags [none] length: 60 10.1.1.6 > 10.1.1.2) ns3::UdpHeader (length: 40 2 > 49153) Payload (size=32) ns3::EthernetTrailer (fcs=0)
+ 0.042973 /NodeList/6/DeviceList/0/$ns3::CsmaNetDevice/TxQueue/Enqueue ns3::EthernetHeader ( length/type=0x800, source=00:00:00:00:00:3f, destination=00:00:00:00:00:3b) ns3::Ipv4Header (tos 0x0 DSCP Default ECN Not-ECT ttl 64 id 0 protocol 17 offset (bytes) 0 flags [none] length: 60 10.1.1.7 > 10.1.1.3) ns3::UdpHeader (length: 40 49153 > 3) Payload (size=32) ns3::EthernetTrailer (fcs=0)
- 0.042973 /NodeList/6/DeviceList/0/$ns3::CsmaNetDevice/TxQueue/Dequeue ns3::EthernetHeader ( length/type=0x800, source=00:00:00:00:00:3f, destination=00:00:00:00:00:3b) ns3::Ipv4Header (tos 0x0 DSCP Default ECN Not-ECT ttl 64 id 0 protocol 17 offset (bytes) 0 flags [none] length: 60 10.1.1.7 > 10.1.1.3) ns3::UdpHeader (length: 40 49153 > 3) Payload (size=32) ns3::EthernetTrailer (fcs=0)
+ 0.042973 /NodeList/6/DeviceList/0/$ns3::CsmaNetDevice/TxQueue/Enqueue ns3::EthernetHeader ( length/type=0x800, source=00:00:00:00:00:3f, destination=00:00:00:00:00:3b) ns3::Ipv4Header (tos 0x0 DSCP Default ECN Not-ECT ttl 64 id 1 protocol 17 offset (bytes) 0 flags [none] length: 60 10.1.1.7 > 10.1.1.3) ns3::UdpHeader (length: 40 49153 > 3) Payload (size=32) ns3::EthernetTrailer (fcs=0)
- 0.0436771 /NodeList/6/DeviceList/0/$ns3::CsmaNetDevice/TxQueue/Dequeue ns3::EthernetHeader ( length/type=0x800, source=00:00:00:00:00:3f, destination=00:00:00:00:00:3b) ns3::Ipv4Header (tos 0x0 DSCP Default ECN Not-ECT ttl 64 id 1 protocol 17 offset (bytes) 0 flags [none] length: 60 10.1.1.7 > 10.1.1.3) ns3::UdpHeader (length: 40 49153 > 3) Payload (size=32) ns3::EthernetTrailer (fcs=0)
r 0.0455834 /NodeList/2/DeviceList/0/$ns3::CsmaNetDevice/MacRx ns3::EthernetHeader ( length/type=0x800, source=00:00:00:00:00:3f, destination=00:00:00:00:00:3b) ns3::Ipv4Header (tos 0x0 DSCP Default ECN Not-ECT ttl 64 id 0 protocol 17 offset (bytes) 0 flags [none] length: 60 10.1.1.7 > 10.1.1.3) ns3::UdpHeader (length: 40 49153 > 3) Payload (size=32) ns3::EthernetTrailer (fcs=0)
r 0.0482744 /NodeList/4/DeviceList/0/$ns3::CsmaNetDevice/MacRx ns3::EthernetHeader ( length/type=0x800, source=00:00:00:00:00:39, destination=00:00:00:00:00:3d) ns3::Ipv4Header (tos 0x0 DSCP Default ECN Not-ECT ttl 64 id 1 protocol 17 offset (bytes) 0 flags [none] length: 60 10.1.1.1 > 10.1.1.5) ns3::UdpHeader (length: 40 49153 > 1) Payload (size=32) ns3::EthernetTrailer (fcs=0)
r 0.0509964 /NodeList/3/DeviceList/0/$ns3::CsmaNetDevice/MacRx ns3::EthernetHeader ( length/type=0x800, source=00:00:00:00:00:40, destination=00:00:00:00:00:3c) ns3::Ipv4Header (tos 0x0 DSCP Default ECN Not-ECT ttl 64 id 1 protocol 17 offset (bytes) 0 flags [none] length: 60 10.1.1.8 > 10.1.1.4) ns3::UdpHeader (length: 40 49153 > 4) Payload (size=32) ns3::EthernetTrailer (fcs=0)
r 0.0540105 /NodeList/2/DeviceList/0/$ns3::CsmaNetDevice/MacRx ns3::EthernetHeader ( length/type=0x800, source=00:00:00:00:00:3f, destination=00:00:00:00:00:3b) ns3::Ipv4Header (tos 0x0 DSCP Default ECN Not-ECT ttl 64 id 1 protocol 17 offset (bytes) 0 flags [none] length: 60 10.1.1.7 > 10.1.1.3) ns3::UdpHeader (length: 40 49153 > 3) Payload (size=32) ns3::EthernetTrailer (fcs=0)
+ 0.0594364 /NodeList/4/DeviceList/0/$ns3::CsmaNetDevice/TxQueue/Enqueue ns3::EthernetHeader ( length/type=0x800, source=00:00:00:00:00:3d, destination=00:00:00:00:00:39) ns3::Ipv4Header (tos 0x0 DSCP Default ECN Not-ECT ttl 64 id 0 protocol 17 offset (bytes) 0 flags [none] length: 60 10.1.1.5 > 10.1.1.1) ns3::UdpHeader (length: 40 1 > 49153) Payload (size=32) ns3::EthernetTrailer (fcs=0)
- 0.0594364 /NodeList/4/DeviceList/0/$ns3::CsmaNetDevice/TxQueue/Dequeue ns3::EthernetHeader ( length/type=0x800, source=00:00:00:00:00:3d, destination=00:00:00:00:00:39) ns3::Ipv4Header (tos 0x0 DSCP Default ECN Not-ECT ttl 64 id 0 protocol 17 offset (bytes) 0 flags [none] length: 60 10.1.1.5 > 10.1.1.1) ns3::UdpHeader (length: 40 1 > 49153) Payload (size=32) ns3::EthernetTrailer (fcs=0)
+ 0.0594364 /NodeList/4/DeviceList/0/$ns3::CsmaNetDevice/TxQueue/Enqueue ns3::EthernetHeader ( length/type=0x800, source=00:00:00:00:00:3d, destination=00:00:00:00:00:39) ns3::Ipv4Header (tos 0x0 DSCP Default ECN Not-ECT ttl 64 id 1 protocol 17 offset (bytes) 0 flags [none] length: 60 10.1.1.5 > 10.1.1.1) ns3::UdpHeader (length: 40 1 > 49153) Payload (size=32) ns3::EthernetTrailer (fcs=0)
- 0.0601405 /NodeList/4/DeviceList/0/$ns3::CsmaNetDevice/TxQueue/Dequeue ns3::EthernetHeader ( length/type=0x800, source=00:00:00:00:00:3d, destination=00:00:00:00:00:39) ns3::Ipv4Header (tos 0x0 DSCP Default ECN Not-ECT ttl 64 id 1 protocol 17 offset (bytes) 0 flags [none] length: 60 10.1.1.5 > 10.1.1.1) ns3::UdpHeader (length: 40 1 > 49153) Payload (size=32) ns3::EthernetTrailer (fcs=0)
r 0.0620467 /NodeList/0/DeviceList/0/$ns3::CsmaNetDevice/MacRx ns3::EthernetHeader ( length/type=0x800, source=00:00:00:00:00:3d, destination=00:00:00:00:00:39) ns3::Ipv4Header (tos 0x0 DSCP Default ECN Not-ECT ttl 64 id 0 protocol 17 offset (bytes) 0 flags [none] length: 60 10.1.1.5 > 10.1.1.1) ns3::UdpHeader (length: 40 1 > 49153) Payload (size=32) ns3::EthernetTrailer (fcs=0)
+ 0.0625 /NodeList/0/DeviceList/0/$ns3::CsmaNetDevice/TxQueue/Enqueue ns3::EthernetHeader ( length/type=0x800, source=00:00:00:00:00:39, destination=00:00:00:00:00:3d) ns3::Ipv4Header (tos 0x0 DSCP Default ECN Not-ECT ttl 64 id 2 protocol 17 offset (bytes) 0 flags [none] length: 60 10.1.1.1 > 10.1.1.5) ns3::UdpHeader (length: 40 49153 > 1) Payload (size=32) ns3::EthernetTrailer (fcs=0)
- 0.0625 /NodeList/0/DeviceList/0/$ns3::CsmaNetDevice/TxQueue/Dequeue ns3::EthernetHeader ( length/type=0x800, source=00:00:00:00:00:39, destination=00:00:00:00:00:3d) ns3::Ipv4Header (tos 0x0 DSCP Default ECN Not-ECT ttl 64 id 2 protocol 17 offset (bytes) 0 flags [none] length: 60 10.1.1.1 > 10.1.1.5) ns3::UdpHeader (length: 40 49153 > 1) Payload (size=32) ns3::EthernetTrailer (fcs=0)
+ 0.0625 /NodeList/1/DeviceList/0/$ns3::CsmaNetDevice/TxQueue/Enqueue ns3::EthernetHeader ( length/type=0x800, source=00:00:00:00:00:3a, destination=00:00:00:00:00:3e) ns3::Ipv4Header (tos 0x0 DSCP Default ECN Not-ECT ttl 64 id 2 protocol 17 offset (bytes) 0 flags [none] length: 60 10.1.1.2 > 10.1.1.6) ns3::UdpHeader (length: 40 49153 > 2) Payload (size=32) ns3::EthernetTrailer (fcs=0)
- 0.0625 /NodeList/1/DeviceList/0/$ns3::CsmaNetDevice/TxQueue/Dequeue ns3::EthernetHeader ( length/type=0x800, source=00:00:00:00:00:3a, destination=00:00:00:00:00:3e) ns3::Ipv4Header (tos 0x0 DSCP Default ECN Not-ECT ttl 64 id 2 protocol 17 offset (bytes) 0 flags [none] length: 60 10.1.1.2 > 10.1.1.6) ns3::UdpHeader (length: 40 49153 > 2) Payload (size=32) ns3::EthernetTrailer (fcs=0)
+ 0.0625 /NodeList/6/DeviceList/0/$ns3::CsmaNetDevice/TxQueue/Enqueue ns3::EthernetHeader ( length/type=0x800, source=00:00:00:00:00:3f, destination=00:00:00:00:00:3b) ns3::Ipv4Header (tos 0x0 DSCP Default ECN Not-ECT ttl 64 id 2 protocol 17 offset (bytes) 0 flags [none] length: 60 10.1.1.7 > 10.1.1.3) ns3::UdpHeader (length: 40 49153 > 3) Payload (size=32) ns3::EthernetTrailer (fcs=0)
- 0.0625 /NodeList/6/DeviceList/0/$ns3::CsmaNetDevice/TxQueue/Dequeue ns3::EthernetHeader ( length/type=0x800, source=00:00:00:00:00:3f, destination=00:00:00:00:00:3b) ns3::Ipv4Header (tos 0x0 DSCP Default ECN Not-ECT ttl 64 id 2 protocol 17 offset (bytes) 0 flags [none] length: 60 10.1.1.7 > 10.1.1.3) ns3::UdpHeader (length: 40 49153 > 3) Payload (size=32) ns3::EthernetTrailer (fcs=0)
+ 0.0625 /NodeList/7/DeviceList/0/$ns3::CsmaNetDevice/TxQueue/Enqueue ns3::EthernetHeader ( length/type=0x800, source=00:00:00:00:00:40, destination=00:00:00:00:00:3c) ns3::Ipv4Header (tos 0x0 DSCP Default ECN Not-ECT ttl 64 id 2 protocol 17 offset (bytes) 0 flags [none] length: 60 10.1.1.8 > 10.1.1.4) ns3::UdpHeader (length: 40 49153 > 4) Payload (size=32) ns3::EthernetTrailer (fcs=0)
- 0.0625 /NodeList/7/DeviceList/0/$ns3::CsmaNetDevice/TxQueue/Dequeue ns3::EthernetHeader ( length/type=0x800, source=00:00:00:00:00:40, destination=00:00:00:00:00:3c) ns3::Ipv4Header (tos 0x0 DSCP Default ECN Not-ECT ttl 64 id 2 protocol 17 offset (bytes) 0 flags [none] length: 60 10.1.1.8 > 10.1.1.4) ns3::UdpHeader (length: 40 49153 > 4) Payload (size=32) ns3::EthernetTrailer (fcs=0)
r 0.0647039 /NodeList/0/DeviceList/0/$ns3::CsmaNetDevice/MacRx ns3::EthernetHeader ( length/type=0x800, source=00:00:00:00:00:3d, destination=00:00:00:00:00:39) ns3::Ipv4Header (tos 0x0 DSCP Default ECN Not-ECT ttl 64 id 1 protocol 17 offset (bytes) 0 flags [none] length: 60 10.1.1.5 > 10.1.1.1) ns3::UdpHeader (length: 40 1 > 49153) Payload (size=32) ns3::EthernetTrailer (fcs=0)
r 0.0673844 /NodeList/5/DeviceList/0/$ns3::CsmaNetDevice/MacRx ns3::EthernetHeader ( length/type=0x800, source=00:00:00:00:00:3a, destination=00:00:00:00:00:3e) ns3::Ipv4Header (tos 0x0 DSCP Default ECN Not-ECT ttl 64 id 2 protocol 17 offset (bytes) 0 flags [none] length: 60 10.1.1.2 > 10.1.1.6) ns3::UdpHeader (length: 40 49153 > 2) Payload (size=32) ns3::EthernetTrailer (fcs=0)
+ 0.0673844 /NodeList/5/DeviceList/0/$ns3::CsmaNetDevice/TxQueue/Enqueue ns3::EthernetHeader ( length/type=0x800, source=00:00:00:00:00:3e, destination=00:00:00:00:00:3a) ns3::Ipv4Header (tos 0x0 DSCP Default ECN Not-ECT ttl 64 id 2 protocol 17 offset (bytes) 0 flags [none] length: 60 10.1.1.6 > 10.1.1.2) ns3::UdpHeader (length: 40 2 > 49153) Payload (size=32) ns3::EthernetTrailer (fcs=0)
- 0.0673844 /NodeList/5/DeviceList/0/$ns3::CsmaNetDevice/TxQueue/Dequeue ns3::EthernetHeader ( length/type=0x800, source=00:00:00:00:00:3e, destination=00:00:00:00:00:3a) ns3::Ipv4Header (tos 0x0 DSCP Default ECN Not-ECT ttl 64 id 2 protocol 17 offset (bytes) 0 flags [none] length: 60 10.1.1.6 > 10.1.1.2) ns3::UdpHeader (length: 40 2 > 49153) Payload (size=32) ns3::EthernetTrailer (fcs=0)
r 0.0699937 /NodeList/1/DeviceList/0/$ns3::CsmaNetDevice/MacRx ns3::EthernetHeader ( length/type=0x800, source=00:00:00:00:00:3e, destination=00:00:00:00:00:3a) ns3::Ipv4Header (tos 0x0 DSCP Default ECN Not-ECT ttl 64 id 2 protocol 17 offset (bytes) 0 flags [none] length: 60 10.1.1.6 > 10.1.1.2) ns3::UdpHeader (length: 40 2 > 49153) Payload (size=32) ns3::EthernetTrailer (fcs=0)
r 0.0726304 /NodeList/3/DeviceList/0/$ns3::CsmaNetDevice/MacRx ns3::EthernetHeader ( length/type=0x800, source=00:00:00:00:00:40, destination=00:00:00:00:00:3c) ns3::Ipv4Header (tos 0x0 DSCP Default ECN Not-ECT ttl 64 id 2 protocol 17 offset (bytes) 0 flags [none] length: 60 10.1.1.8 > 10.1.1.4) ns3::UdpHeader (length: 40 49153 > 4) Payload (size=32) ns3::EthernetTrailer (fcs=0)
+ 0.0778244 /NodeList/3/DeviceList/0/$ns3::CsmaNetDevice/TxQueue/Enqueue ns3::EthernetHeader ( length/type=0x800, source=00:00:00:00:00:3c, destination=00:00:00:00:00:40) ns3::Ipv4Header (tos 0x0 DSCP Default ECN Not-ECT ttl 64 id 0 protocol 17 offset (bytes) 0 flags [none] length: 60 10.1.1.4 > 10.1.1.8) ns3::UdpHeader (length: 40 4 > 49153) Payload (size=32) ns3::EthernetTrailer (fcs=0)
- 0.0778244 /NodeList/3/DeviceList/0/$ns3::CsmaNetDevice/TxQueue/Dequeue ns3::EthernetHeader ( length/type=0x800, source=00:00:00:00:00:3c, destination=00:00:00:00:00:40) ns3::Ipv4Header (tos 0x0 DSCP Default ECN Not-ECT ttl 64 id 0 protocol 17 offset (bytes) 0 flags [none] length: 60 10.1.1.4 > 10.1.1.8) ns3::UdpHeader (length: 40 4 > 49153) Payload (size=32) ns3::EthernetTrailer (fcs=0)
+ 0.0778244 /NodeList/3/DeviceList/0/$ns3::CsmaNetDevice/TxQueue/Enqueue ns3::EthernetHeader ( length/type=0x800, source=00:00:00:00:00:3c, destination=00:00:00:00:00:40) ns3::Ipv4Header (tos 0x0 DSCP Default ECN Not-ECT ttl 64 id 1 protocol 17 offset (bytes) 0 flags [none] length: 60 10.1.1.4 > 10.1.1.8) ns3::UdpHeader (length: 40 4 > 49153) Payload (size=32) ns3::EthernetTrailer (fcs=0)
+ 0.0778244 /NodeList/3/DeviceList/0/$ns3::CsmaNetDevice/TxQueue/Enqueue ns3::EthernetHeader ( length/type=0x800, source=00:00:00:00:00:3c, destination=00:00:00:00:00:40) ns3::Ipv4Header (tos 0x0 DSCP Default ECN Not-ECT ttl 64 id 2 protocol 17 offset (bytes) 0 flags [none] length: 60 10.1.1.4 > 10.1.1.8) ns3::UdpHeader (length: 40 4 > 49153) Payload (size=32) ns3::EthernetTrailer (fcs=0)
- 0.0785285 /NodeList/3/DeviceList/0/$ns3::CsmaNetDevice/TxQueue/Dequeue ns3::EthernetHeader ( length/type=0x800, source=00:00:00:00:00:3c, destination=00:00:00:00:00:40) ns3::Ipv4Header (tos 0x0 DSCP Default ECN Not-ECT ttl 64 id 1 protocol 17 offset (bytes) 0 flags [none] length: 60 10.1.1.4 > 10.1.1.8) ns3::UdpHeader (length: 40 4 > 49153) Payload (size=32) ns3::EthernetTrailer (fcs=0)
r 0.0804347 /NodeList/7/DeviceList/0/$ns3::CsmaNetDevice/MacRx ns3::EthernetHeader ( length/type=0x800, source=00:00:00:00:00:3c, destination=00:00:00:00:00:40) ns3::Ipv4Header (tos 0x0 DSCP Default ECN Not-ECT ttl 64 id 0 protocol 17 offset (bytes) 0 flags [none] length: 60 10.1.1.4 > 10.1.1.8) ns3::UdpHeader (length: 40 4 > 49153) Payload (size=32) ns3::EthernetTrailer (fcs=0)
r 0.0857534 /NodeList/2/DeviceList/0/$ns3::CsmaNetDevice/MacRx ns3::EthernetHeader ( length/type=0x800, source=00:00:00:00:00:3f, destination=00:00:00:00:00:3b) ns3::Ipv4Header (tos 0x0 DSCP Default ECN Not-ECT ttl 64 id 2 protocol 17 offset (bytes) 0 flags [none] length: 60 10.1.1.7 > 10.1.1.3) ns3::UdpHeader (length: 40 49153 > 3) Payload (size=32) ns3::EthernetTrailer (fcs=0)
r 0.0883814 /NodeList/4/DeviceList/0/$ns3::CsmaNetDevice/MacRx ns3::EthernetHeader ( length/type=0x800, source=00:00:00:00:00:39, destination=00:00:00:00:00:3d) ns3::Ipv4Header (tos 0x0 DSCP Default ECN Not-ECT ttl 64 id 2 protocol 17 offset (bytes) 0 flags [none] length: 60 10.1.1.1 > 10.1.1.5) ns3::UdpHeader (length: 40 49153 > 1) Payload (size=32) ns3::EthernetTrailer (fcs=0)
+ 0.0883814 /NodeList/4/DeviceList/0/$ns3::CsmaNetDevice/TxQueue/Enqueue ns3::EthernetHeader ( length/type=0x800, source=00:00:00:00:00:3d, destination=00:00:00:00:00:39) ns3::Ipv4Header (tos 0x0 DSCP Default ECN Not-ECT ttl 64 id 2 protocol 17 offset (bytes) 0 flags [none] length: 60 10.1.1.5 > 10.1.1.1) ns3::UdpHeader (length: 40 1 > 49153) Payload (size=32) ns3::EthernetTrailer (fcs=0)
- 0.0883814 /NodeList/4/DeviceList/0/$ns3::CsmaNetDevice/TxQueue/Dequeue ns3::EthernetHeader ( length/type=0x800, source=00:00:00:00:00:3d, destination=00:00:00:00:00:39) ns3::Ipv4Header (tos 0x0 DSCP Default ECN Not-ECT ttl 64 id 2 protocol 17 offset (bytes) 0 flags [none] length: 60 10.1.1.5 > 10.1.1.1) ns3::UdpHeader (length: 40 1 > 49153) Payload (size=32) ns3::EthernetTrailer (fcs=0)
r 0.0909907 /NodeList/0/DeviceList/0/$ns3::CsmaNetDevice/MacRx ns3::EthernetHeader ( length/type=0x800, source=00:00:00:00:00:3d, destination=00:00:00:00:00:39) ns3::Ipv4Header (tos 0x0 DSCP Default ECN Not-ECT ttl 64 id 2 protocol 17 offset (bytes) 0 flags [none] length: 60 10.1.1.5 > 10.1.1.1) ns3::UdpHeader (length: 40 1 > 49153) Payload (size=32) ns3::EthernetTrailer (fcs=0)
+ 0.09375 /NodeList/0/DeviceList/0/$ns3::CsmaNetDevice/TxQueue/Enqueue ns3::EthernetHeader ( length/type=0x800, source=00:00:00:00:00:39, destination=00:00:00:00:00:3d) ns3::Ipv4Header (tos 0x0 DSCP Default ECN Not-ECT ttl 64 id 3 protocol 17 offset (bytes) 0 flags [none] length: 60 10.1.1.1 > 10.1.1.5) ns3::UdpHeader (length: 40 49153 > 1) Payload (size=32) ns3::EthernetTrailer (fcs=0)
- 0.09375 /NodeList/0/DeviceList/0/$ns3::CsmaNetDevice/TxQueue/Dequeue ns3::EthernetHeader ( length/type=0x800, source=00:00:00:00:00:39, destination=00:00:00:00:00:3d) ns3::Ipv4Header (tos 0x0 DSCP Default ECN Not-ECT ttl 64 id 3 protocol 17 offset (bytes) 0 flags [none] length: 60 10.1.1.1 > 10.1.1.5) ns3::UdpHeader (length: 40 49153 > 1) Payload (size=32) ns3::EthernetTrailer (fcs=0)
+ 0.09375 /NodeList/1/DeviceList/0/$ns3::CsmaNetDevice/TxQueue/Enqueue ns3::EthernetHeader ( length/type=0x800, source=00:00:00:00:00:3a, destination=00:00:00:00:00:3e) ns3::Ipv4Header (tos 0x0 DSCP Default ECN Not-ECT ttl 64 id 3 protocol 17 offset (bytes) 0 flags [none] length: 60 10.1.1.2 > 10.1.1.6) ns3::UdpHeader (length: 40 49153 > 2) Payload (size=32) ns3::EthernetTrailer (fcs=0)
- 0.09375 /NodeList/1/DeviceList/0/$ns3::CsmaNetDevice/TxQueue/Dequeue ns3::EthernetHeader ( length/type=0x800, source=00:00:00:00:00:3a, destination=00:00:00:00:00:3e) ns3::Ipv4Header (tos 0x0 DSCP Default ECN Not-ECT ttl 64 id 3 protocol 17 offset (bytes) 0 flags [none] length: 60 10.1.1.2 > 10.1.1.6) ns3::UdpHeader (length: 40 49153 > 2) Payload (size=32) ns3::EthernetTrailer (fcs=0)
+ 0.09375 /NodeList/6/DeviceList/0/$ns3::CsmaNetDevice/TxQueue/Enqueue ns3::EthernetHeader ( length/type=0x800, source=00:00:00:00:00:3f, destination=00:00:00:00:00:3b) ns3::Ipv4Header (tos 0x0 DSCP Default ECN Not-ECT ttl 64 id 3 protocol 17 offset (bytes) 0 flags [none] length: 60 10.1.1.7 > 10.1.1.3) ns3::UdpHeader (length: 40 49153 > 3) Payload (size=32) ns3::EthernetTrailer (fcs=0)
- 0.09375 /NodeList/6/DeviceList/0/$ns3::CsmaNetDevice/TxQueue/Dequeue ns3::EthernetHeader ( length/type=0x800, source=00:00:00:00:00:3f, destination=00:00:00:00:00:3b) ns3::Ipv4Header (tos 0x0 DSCP Default ECN Not-ECT ttl 64 id 3 protocol 17 offset (bytes) 0 flags [none] length: 60 10.1.1.7 > 10.1.1.3) ns3::UdpHeader (length: 40 49153 > 3) Payload (size=32) ns3::EthernetTrailer (fcs=0)
+ 0.09375 /NodeList/7/DeviceList/0/$ns3::CsmaNetDevice/TxQueue/Enqueue ns3::EthernetHeader ( length/type=0x800, source=00:00:00:00:00:40, destination=00:00:00:00:00:3c) ns3::Ipv4Header (tos 0x0 DSCP Default ECN Not-ECT ttl 64 id 3 protocol 17 offset (bytes) 0 flags [none] length: 60 10.1.1.8 > 10.1.1.4) ns3::UdpHeader (length: 40 49153 > 4) Payload (size=32) ns3::EthernetTrailer (fcs=0)
- 0.09375 /NodeList/7/DeviceList/0/$ns3::CsmaNetDevice/TxQueue/Dequeue ns3::EthernetHeader ( length/type=0x800, source=00:00:00:00:00:40, destination=00:00:00:00:00:3c) ns3::Ipv4Header (tos 0x0 DSCP Default ECN Not-ECT ttl 64 id 3 protocol 17 offset (bytes) 0 flags [none] length: 60 10.1.1.8 > 10.1.1.4) ns3::UdpHeader (length: 40 49153 > 4) Payload (size=32) ns3::EthernetTrailer (fcs=0)
+ 0.0938091 /NodeList/2/DeviceList/0/$ns3::CsmaNetDevice/TxQueue/Enqueue ns3::EthernetHeader ( length/type=0x800, source=00:00:00:00:00:3b, destination=00:00:00:00:00:3f) ns3::Ipv4Header (tos 0x0 DSCP Default ECN Not-ECT ttl 64 id 0 protocol 17 offset (bytes) 0 flags [none] length: 60 10.1.1.3 > 10.1.1.7) ns3::UdpHeader (length: 40 3 > 49153) Payload (size=32) ns3::EthernetTrailer (fcs=0)
- 0.0938091 /NodeList/2/DeviceList/0/$ns3::CsmaNetDevice/TxQueue/Dequeue ns3::EthernetHeader ( length/type=0x800, source=00:00:00:00:00:3b, destination=00:00:00:00:00:3f) ns3::Ipv4Header (tos 0x0 DSCP Default ECN Not-ECT ttl 64 id 0 protocol 17 offset (bytes) 0 flags [none] length: 60 10.1.1.3 > 10.1.1.7) ns3::UdpHeader (length: 40 3 > 49153) Payload (size=32) ns3::EthernetTrailer (fcs=0)
+ 0.0938091 /NodeList/2/DeviceList/0/$ns3::CsmaNetDevice/TxQueue/Enqueue ns3::EthernetHeader ( length/type=0x800, source=00:00:00:00:00:3b, destination=00:00:00:00:00:3f) ns3::Ipv4Header (tos 0x0 DSCP Default ECN Not-ECT ttl 64 id 1 protocol 17 offset (bytes) 0 flags [none] length: 60 10.1.1.3 > 10.1.1.7) ns3::UdpHeader (length: 40 3 > 49153) Payload (size=32) ns3::EthernetTrailer (fcs=0)
+ 0.0938091 /NodeList/2/DeviceList/0/$ns3::CsmaNetDevice/TxQueue/Enqueue ns3::EthernetHeader ( length/type=0x800, source=00:00:00:00:00:3b, destination=00:00:00:00:00:3f) ns3::Ipv4Header (tos 0x0 DSCP Default ECN Not-ECT ttl 64 id 2 protocol 17 offset (bytes) 0 flags [none] length: 60 10.1.1.3 > 10.1.1.7) ns3::UdpHeader (length: 40 3 > 49153) Payload (size=32) ns3::EthernetTrailer (fcs=0)
- 0.0945132 /NodeList/2/DeviceList/0/$ns3::CsmaNetDevice/TxQueue/Dequeue ns3::EthernetHeader ( length/type=0x800, source=00:00:00:00:00:3b, destination=00:00:00:00:00:3f) ns3::Ipv4Header (tos 0x0 DSCP Default ECN Not-ECT ttl 64 id 1 protocol 17 offset (bytes) 0 flags [none] length: 60 10.1.1.3 > 10.1.1.7) ns3::UdpHeader (length: 40 3 > 49153) Payload (size=32) ns3::EthernetTrailer (fcs=0)
r 0.0964195 /NodeList/6/DeviceList/0/$ns3::CsmaNetDevice/MacRx ns3::EthernetHeader ( length/type=0x800, source=00:00:00:00:00:3b, destination=00:00:00:00:00:3f) ns3::Ipv4Header (tos 0x0 DSCP Default ECN Not-ECT ttl 64 id 0 protocol 17 offset (bytes) 0 flags [none] length: 60 10.1.1.3 > 10.1.1.7) ns3::UdpHeader (length: 40 3 > 49153) Payload (size=32) ns3::EthernetTrailer (fcs=0)
- 0.0972174 /NodeList/2/DeviceList/0/$ns3::CsmaNetDevice/TxQueue/Dequeue ns3::EthernetHeader ( length/type=0x800, source=00:00:00:00:00:3b, destination=00:00:00:00:00:3f) ns3::Ipv4Header (tos 0x0 DSCP Default ECN Not-ECT ttl 64 id 2 protocol 17 offset (bytes) 0 flags [none] length: 60 10.1.1.3 > 10.1.1.7) ns3::UdpHeader (length: 40 3 > 49153) Payload (size=32) ns3::EthernetTrailer (fcs=0)
r 0.0991236 /NodeList/6/DeviceList/0/$ns3::CsmaNetDevice/MacRx ns3::EthernetHeader ( length/type=0x800, source=00:00:00:00:00:3b, destination=00:00:00:00:00:3f) ns3::Ipv4Header (tos 0x0 DSCP Default ECN Not-ECT ttl 64 id 1 protocol 17 offset (bytes) 0 flags [none] length: 60 10.1.1.3 > 10.1.1.7) ns3::UdpHeader (length: 40 3 > 49153) Payload (size=32) ns3::EthernetTrailer (fcs=0)
r 0.101962 /NodeList/3/DeviceList/0/$ns3::CsmaNetDevice/MacRx ns3::EthernetHeader ( length/type=0x800, source=00:00:00:00:00:40, destination=00:00:00:00:00:3c) ns3::Ipv4Header (tos 0x0 DSCP Default ECN Not-ECT ttl 64 id 3 protocol 17 offset (bytes) 0 flags [none] length: 60 10.1.1.8 > 10.1.1.4) ns3::UdpHeader (length: 40 49153 > 4) Payload (size=32) ns3::EthernetTrailer (fcs=0)