+ 0.005001 /NodeList/6/DeviceList/0/$ns3::CsmaNetDevice/TxQueue/Enqueue ns3::EthernetHeader ( length/type=0x800, source=00:00:00:00:00:27, destination=00:00:00:00:00:23) ns3::Ipv4Header (tos 0x0 DSCP Default ECN Not-ECT ttl 64 id 0 protocol 17 offset (bytes) 0 flags [none] length: 60 10.1.1.7 > 10.1.1.3) ns3::UdpHeader (length: 40 49153 > 3) Payload (size=32) ns3::EthernetTrailer (fcs=0)
- 0.005001 /NodeList/6/DeviceList/0/$ns3::CsmaNetDevice/TxQueue/Dequeue ns3::EthernetHeader ( length/type=0x800, source=00:00:00:00:00:27, destination=00:00:00:00:00:23) ns3::Ipv4Header (tos 0x0 DSCP Default ECN Not-ECT ttl 64 id 0 protocol 17 offset (bytes) 0 flags [none] length: 60 10.1.1.7 > 10.1.1.3) ns3::UdpHeader (length: 40 49153 > 3) Payload (size=32) ns3::EthernetTrailer (fcs=0)
+ 0.010002 /NodeList/1/DeviceList/0/$ns3::CsmaNetDevice/TxQueue/Enqueue ns3::EthernetHeader ( length/type=0x800, source=00:00:00:00:00:22, destination=00:00:00:00:00:26) ns3::Ipv4Header (tos 0x0 DSCP Default ECN Not-ECT ttl 64 id 0 protocol 17 offset (bytes) 0 flags [none] length: 60 10.1.1.2 > 10.1.1.6) ns3::UdpHeader (length: 40 49153 > 2) Payload (size=32) ns3::EthernetTrailer (fcs=0)
- 0.010002 /NodeList/1/DeviceList/0/$ns3::CsmaNetDevice/TxQueue/Dequeue ns3::EthernetHeader ( length/type=0x800, source=00:00:00:00:00:22, destination=00:00:00:00:00:26) ns3::Ipv4Header (tos 0x0 DSCP Default ECN Not-ECT ttl 64 id 0 protocol 17 offset (bytes) 0 flags [none] length: 60 10.1.1.2 > 10.1.1.6) ns3::UdpHeader (length: 40 49153 > 2) Payload (size=32) ns3::EthernetTrailer (fcs=0)
r 0.0126124 /NodeList/5/DeviceList/0/$ns3::CsmaNetDevice/MacRx ns3::EthernetHeader ( length/type=0x800, source=00:00:00:00:00:22, destination=00:00:00:00:00:26) ns3::Ipv4Header (tos 0x0 DSCP Default ECN Not-ECT ttl 64 id 0 protocol 17 offset (bytes) 0 flags [none] length: 60 10.1.1.2 > 10.1.1.6) ns3::UdpHeader (length: 40 49153 > 2) Payload (size=32) ns3::EthernetTrailer (fcs=0)
+ 0.0176134 /NodeList/5/DeviceList/0/$ns3::CsmaNetDevice/TxQueue/Enqueue ns3::EthernetHeader ( length/type=0x800, source=00:00:00:00:00:26, destination=00:00:00:00:00:22) ns3::Ipv4Header (tos 0x0 DSCP Default ECN Not-ECT ttl 64 id 0 protocol 17 offset (bytes) 0 flags [none] length: 60 10.1.1.6 > 10.1.1.2) ns3::UdpHeader (length: 40 2 > 49153) Payload (size=32) ns3::EthernetTrailer (fcs=0)
- 0.0176134 /NodeList/5/DeviceList/0/$ns3::CsmaNetDevice/TxQueue/Dequeue ns3::EthernetHeader ( length/type=0x800, source=00:00:00:00:00:26, destination=00:00:00:00:00:22) ns3::Ipv4Header (tos 0x0 DSCP Default ECN Not-ECT ttl 64 id 0 protocol 17 offset (bytes) 0 flags [none] length: 60 10.1.1.6 > 10.1.1.2) ns3::UdpHeader (length: 40 2 > 49153) Payload (size=32) ns3::EthernetTrailer (fcs=0)
r 0.0202237 /NodeList/1/DeviceList/0/$ns3::CsmaNetDevice/MacRx ns3::EthernetHeader ( length/type=0x800, source=00:00:00:00:00:26, destination=00:00:00:00:00:22) ns3::Ipv4Header (tos 0x0 DSCP Default ECN Not-ECT ttl 64 id 0 protocol 17 offset (bytes) 0 flags [none] length: 60 10.1.1.6 > 10.1.1.2) ns3::UdpHeader (length: 40 2 > 49153) Payload (size=32) ns3::EthernetTrailer (fcs=0)
+ 0.025247 /NodeList/7/DeviceList/0/$ns3::CsmaNetDevice/TxQueue/Enqueue ns3::EthernetHeader ( length/type=0x800, source=00:00:00:00:00:28, destination=00:00:00:00:00:24) ns3::Ipv4Header (tos 0x0 DSCP Default ECN Not-ECT ttl 64 id 0 protocol 17 offset (bytes) 0 flags [none] length: 60 10.1.1.8 > 10.1.1.4) ns3::UdpHeader (length: 40 49153 > 4) Payload (size=32) ns3::EthernetTrailer (fcs=0)
- 0.025247 /NodeList/7/DeviceList/0/$ns3::CsmaNetDevice/TxQueue/Dequeue ns3::EthernetHeader ( length/type=0x800, source=00:00:00:00:00:28, destination=00:00:00:00:00:24) ns3::Ipv4Header (tos 0x0 DSCP Default ECN Not-ECT ttl 64 id 0 protocol 17 offset (bytes) 0 flags [none] length: 60 10.1.1.8 > 10.1.1.4) ns3::UdpHeader (length: 40 49153 > 4) Payload (size=32) ns3::EthernetTrailer (fcs=0)
r 0.0278574 /NodeList/3/DeviceList/0/$ns3::CsmaNetDevice/MacRx ns3::EthernetHeader ( length/type=0x800, source=00:00:00:00:00:28, destination=00:00:00:00:00:24) ns3::Ipv4Header (tos 0x0 DSCP Default ECN Not-ECT ttl 64 id 0 protocol 17 offset (bytes) 0 flags [none] length: 60 10.1.1.8 > 10.1.1.4) ns3::UdpHeader (length: 40 49153 > 4) Payload (size=32) ns3::EthernetTrailer (fcs=0)
+ 0.03125 /NodeList/1/DeviceList/0/$ns3::CsmaNetDevice/TxQueue/Enqueue ns3::EthernetHeader ( length/type=0x800, source=00:00:00:00:00:22, destination=00:00:00:00:00:26) ns3::Ipv4Header (tos 0x0 DSCP Default ECN Not-ECT ttl 64 id 1 protocol 17 offset (bytes) 0 flags [none] length: 60 10.1.1.2 > 10.1.1.6) ns3::UdpHeader (length: 40 49153 > 2) Payload (size=32) ns3::EthernetTrailer (fcs=0)
- 0.03125 /NodeList/1/DeviceList/0/$ns3::CsmaNetDevice/TxQueue/Dequeue ns3::EthernetHeader ( length/type=0x800, source=00:00:00:00:00:22, destination=00:00:00:00:00:26) ns3::Ipv4Header (tos 0x0 DSCP Default ECN Not-ECT ttl 64 id 1 protocol 17 offset (bytes) 0 flags [none] length: 60 10.1.1.2 > 10.1.1.6) ns3::UdpHeader (length: 40 49153 > 2) Payload (size=32) ns3::EthernetTrailer (fcs=0)
+ 0.03125 /NodeList/6/DeviceList/0/$ns3::CsmaNetDevice/TxQueue/Enqueue ns3::EthernetHeader ( length/type=0x800, source=00:00:00:00:00:27, destination=00:00:00:00:00:23) ns3::Ipv4Header (tos 0x0 DSCP Default ECN Not-ECT ttl 64 id 1 protocol 17 offset (bytes) 0 flags [none] length: 60 10.1.1.7 > 10.1.1.3) ns3::UdpHeader (length: 40 49153 > 3) Payload (size=32) ns3::EthernetTrailer (fcs=0)
+ 0.03125 /NodeList/7/DeviceList/0/$ns3::CsmaNetDevice/TxQueue/Enqueue ns3::EthernetHeader ( length/type=0x800, source=00:00:00:00:00:28, destination=00:00:00:00:00:24) ns3::Ipv4Header (tos 0x0 DSCP Default ECN Not-ECT ttl 64 id 1 protocol 17 offset (bytes) 0 flags [none] length: 60 10.1.1.8 > 10.1.1.4) ns3::UdpHeader (length: 40 49153 > 4) Payload (size=32) ns3::EthernetTrailer (fcs=0)
- 0.03125 /NodeList/7/DeviceList/0/$ns3::CsmaNetDevice/TxQueue/Dequeue ns3::EthernetHeader ( length/type=0x800, source=00:00:00:00:00:28, destination=00:00:00:00:00:24) ns3::Ipv4Header (tos 0x0 DSCP Default ECN Not-ECT ttl 64 id 1 protocol 17 offset (bytes) 0 flags [none] length: 60 10.1.1.8 > 10.1.1.4) ns3::UdpHeader (length: 40 49153 > 4) Payload (size=32) ns3::EthernetTrailer (fcs=0)
+ 0.032878 /NodeList/0/DeviceList/0/$ns3::CsmaNetDevice/TxQueue/Enqueue ns3::EthernetHeader ( length/type=0x800, source=00:00:00:00:00:21, destination=00:00:00:00:00:25) ns3::Ipv4Header (tos 0x0 DSCP Default ECN Not-ECT ttl 64 id 0 protocol 17 offset (bytes) 0 flags [none] length: 60 10.1.1.1 > 10.1.1.5) ns3::UdpHeader (length: 40 49153 > 1) Payload (size=32) ns3::EthernetTrailer (fcs=0)
- 0.032878 /NodeList/0/DeviceList/0/$ns3::CsmaNetDevice/TxQueue/Dequeue ns3::EthernetHeader ( length/type=0x800, source=00:00:00:00:00:21, destination=00:00:00:00:00:25) ns3::Ipv4Header (tos 0x0 DSCP Default ECN Not-ECT ttl 64 id 0 protocol 17 offset (bytes) 0 flags [none] length: 60 10.1.1.1 > 10.1.1.5) ns3::UdpHeader (length: 40 49153 > 1) Payload (size=32) ns3::EthernetTrailer (fcs=0)
+ 0.032878 /NodeList/0/DeviceList/0/$ns3::CsmaNetDevice/TxQueue/Enqueue ns3::EthernetHeader ( length/type=0x800, source=00:00:00:00:00:21, destination=00:00:00:00:00:25) ns3::Ipv4Header (tos 0x0 DSCP Default ECN Not-ECT ttl 64 id 1 protocol 17 offset (bytes) 0 flags [none] length: 60 10.1.1.1 > 10.1.1.5) ns3::UdpHeader (length: 40 49153 > 1) Payload (size=32) ns3::EthernetTrailer (fcs=0)
- 0.0335821 /NodeList/0/DeviceList/0/$ns3::CsmaNetDevice/TxQueue/Dequeue ns3::EthernetHeader ( length/type=0x800, source=00:00:00:00:00:21, destination=00:00:00:00:00:25) ns3::Ipv4Header (tos 0x0 DSCP Default ECN Not-ECT ttl 64 id 1 protocol 17 offset (bytes) 0 flags [none] length: 60 10.1.1.1 > 10.1.1.5) ns3::UdpHeader (length: 40 49153 > 1) Payload (size=32) ns3::EthernetTrailer (fcs=0)
r 0.0354884 /NodeList/4/DeviceList/0/$ns3::CsmaNetDevice/MacRx ns3::EthernetHeader ( length/type=0x800, source=00:00:00:00:00:21, destination=00:00:00:00:00:25) ns3::Ipv4Header (tos 0x0 DSCP Default ECN Not-ECT ttl 64 id 0 protocol 17 offset (bytes) 0 flags [none] length: 60 10.1.1.1 > 10.1.1.5) ns3::UdpHeader (length: 40 49153 > 1) Payload (size=32) ns3::EthernetTrailer (fcs=0)
r 0.0411114 /NodeList/3/DeviceList/0/$ns3::CsmaNetDevice/MacRx ns3::EthernetHeader ( length/type=0x800, source=00:00:00:00:00:28, destination=00:00:00:00:00:24) ns3::Ipv4Header (tos 0x0 DSCP Default ECN Not-ECT ttl 64 id 1 protocol 17 offset (bytes) 0 flags [none] length: 60 10.1.1.8 > 10.1.1.4) ns3::UdpHeader (length: 40 49153 > 4) Payload (size=32) ns3::EthernetTrailer (fcs=0)
+ 0.0436911 /NodeList/3/DeviceList/0/$ns3::CsmaNetDevice/TxQueue/Enqueue ns3::EthernetHeader ( length/type=0x800, source=00:00:00:00:00:24, destination=00:00:00:00:00:28) ns3::Ipv4Header (tos 0x0 DSCP Default ECN Not-ECT ttl 64 id 0 protocol 17 offset (bytes) 0 flags [none] length: 60 10.1.1.4 > 10.1.1.8) ns3::UdpHeader (length: 40 4 > 49153) Payload (size=32) ns3::EthernetTrailer (fcs=0)
- 0.0436911 /NodeList/3/DeviceList/0/$ns3::CsmaNetDevice/TxQueue/Dequeue ns3::EthernetHeader ( length/type=0x800, source=00:00:00:00:00:24, destination=00:00:00:00:00:28) ns3::Ipv4Header (tos 0x0 DSCP Default ECN Not-ECT ttl 64 id 0 protocol 17 offset (bytes) 0 flags [none] length: 60 10.1.1.4 > 10.1.1.8) ns3::UdpHeader (length: 40 4 > 49153) Payload (size=32) ns3::EthernetTrailer (fcs=0)
+ 0.0436911 /NodeList/3/DeviceList/0/$ns3::CsmaNetDevice/TxQueue/Enqueue ns3::EthernetHeader ( length/type=0x800, source=00:00:00:00:00:24, destination=00:00:00:00:00:28) ns3::Ipv4Header (tos 0x0 DSCP Default ECN Not-ECT ttl 64 id 1 protocol 17 offset (bytes) 0 flags [none] length: 60 10.1.1.4 > 10.1.1.8) ns3::UdpHeader (length: 40 4 > 49153) Payload (size=32) ns3::EthernetTrailer (fcs=0)
- 0.0443952 /NodeList/3/DeviceList/0/$ns3::CsmaNetDevice/TxQueue/Dequeue ns3::EthernetHeader ( length/type=0x800, source=00:00:00:00:00:24, destination=00:00:00:00:00:28) ns3::Ipv4Header (tos 0x0 DSCP Default ECN Not-ECT ttl 64 id 1 protocol 17 offset (bytes) 0 flags [none] length: 60 10.1.1.4 > 10.1.1.8) ns3::UdpHeader (length: 40 4 > 49153) Payload (size=32) ns3::EthernetTrailer (fcs=0)
r 0.0463015 /NodeList/7/DeviceList/0/$ns3::CsmaNetDevice/MacRx ns3::EthernetHeader ( length/type=0x800, source=00:00:00:00:00:24, destination=00:00:00:00:00:28) ns3::Ipv4Header (tos 0x0 DSCP Default ECN Not-ECT ttl 64 id 0 protocol 17 offset (bytes) 0 flags [none] length: 60 10.1.1.4 > 10.1.1.8) ns3::UdpHeader (length: 40 4 > 49153) Payload (size=32) ns3::EthernetTrailer (fcs=0)
r 0.0489335 /NodeList/4/DeviceList/0/$ns3::CsmaNetDevice/MacRx ns3::EthernetHeader ( length/type=0x800, source=00:00:00:00:00:21, destination=00:00:00:00:00:25) ns3::Ipv4Header (tos 0x0 DSCP Default ECN Not-ECT ttl 64 id 1 protocol 17 offset (bytes) 0 flags [none] length: 60 10.1.1.1 > 10.1.1.5) ns3::UdpHeader (length: 40 49153 > 1) Payload (size=32) ns3::EthernetTrailer (fcs=0)
r 0.0515594 /NodeList/5/DeviceList/0/$ns3::CsmaNetDevice/MacRx ns3::EthernetHeader ( length/type=0x800, source=00:00:00:00:00:22, destination=00:00:00:00:00:26) ns3::Ipv4Header (tos 0x0 DSCP Default ECN Not-ECT ttl 64 id 1 protocol 17 offset (bytes) 0 flags [none] length: 60 10.1.1.2 > 10.1.1.6) ns3::UdpHeader (length: 40 49153 > 2) Payload (size=32) ns3::EthernetTrailer (fcs=0)
+ 0.0515594 /NodeList/5/DeviceList/0/$ns3::CsmaNetDevice/TxQueue/Enqueue ns3::EthernetHeader ( length/type=0x800, source=00:00:00:00:00:26, destination=00:00:00:00:00:22) ns3::Ipv4Header (tos 0x0 DSCP Default ECN Not-ECT ttl 64 id 1 protocol 17 offset (bytes) 0 flags [none] length: 60 10.1.1.6 > 10.1.1.2) ns3::UdpHeader (length: 40 2 > 49153) Payload (size=32) ns3::EthernetTrailer (fcs=0)
- 0.0515594 /NodeList/5/DeviceList/0/$ns3::CsmaNetDevice/TxQueue/Dequeue ns3::EthernetHeader ( length/type=0x800, source=00:00:00:00:00:26, destination=00:00:00:00:00:22) ns3::Ipv4Header (tos 0x0 DSCP Default ECN Not-ECT ttl 64 id 1 protocol 17 offset (bytes) 0 flags [none] length: 60 10.1.1.6 > 10.1.1.2) ns3::UdpHeader (length: 40 2 > 49153) Payload (size=32) ns3::EthernetTrailer (fcs=0)
r 0.0541687 /NodeList/1/DeviceList/0/$ns3::CsmaNetDevice/MacRx ns3::EthernetHeader ( length/type=0x800, source=00:00:00:00:00:26, destination=00:00:00:00:00:22) ns3::Ipv4Header (tos 0x0 DSCP Default ECN Not-ECT ttl 64 id 1 protocol 17 offset (bytes) 0 flags [none] length: 60 10.1.1.6 > 10.1.1.2) ns3::UdpHeader (length: 40 2 > 49153) Payload (size=32) ns3::EthernetTrailer (fcs=0)
r 0.0569166 /NodeList/7/DeviceList/0/$ns3::CsmaNetDevice/MacRx ns3::EthernetHeader ( length/type=0x800, source=00:00:00:00:00:24, destination=00:00:00:00:00:28) ns3::Ipv4Header (tos 0x0 DSCP Default ECN Not-ECT ttl 64 id 1 protocol 17 offset (bytes) 0 flags [none] length: 60 10.1.1.4 > 10.1.1.8) ns3::UdpHeader (length: 40 4 > 49153) Payload (size=32) ns3::EthernetTrailer (fcs=0)
- 0.0577691 /NodeList/6/DeviceList/0/$ns3::CsmaNetDevice/TxQueue/Dequeue ns3::EthernetHeader ( length/type=0x800, source=00:00:00:00:00:27, destination=00:00:00:00:00:23) ns3::Ipv4Header (tos 0x0 DSCP Default ECN Not-ECT ttl 64 id 1 protocol 17 offset (bytes) 0 flags [none] length: 60 10.1.1.7 > 10.1.1.3) ns3::UdpHeader (length: 40 49153 > 3) Payload (size=32) ns3::EthernetTrailer (fcs=0)
r 0.0596754 /NodeList/2/DeviceList/0/$ns3::CsmaNetDevice/MacRx ns3::EthernetHeader ( length/type=0x800, source=00:00:00:00:00:27, destination=00:00:00:00:00:23) ns3::Ipv4Header (tos 0x0 DSCP Default ECN Not-ECT ttl 64 id 0 protocol 17 offset (bytes) 0 flags [none] length: 60 10.1.1.7 > 10.1.1.3) ns3::UdpHeader (length: 40 49153 > 3) Payload (size=32) ns3::EthernetTrailer (fcs=0)
+ 0.0625 /NodeList/0/DeviceList/0/$ns3::CsmaNetDevice/TxQueue/Enqueue ns3::EthernetHeader ( length/type=0x800, source=00:00:00:00:00:21, destination=00:00:00:00:00:25) ns3::Ipv4Header (tos 0x0 DSCP Default ECN Not-ECT ttl 64 id 2 protocol 17 offset (bytes) 0 flags [none] length: 60 10.1.1.1 > 10.1.1.5) ns3::UdpHeader (length: 40 49153 > 1) Payload (size=32) ns3::EthernetTrailer (fcs=0)
+ 0.0625 /NodeList/1/DeviceList/0/$ns3::CsmaNetDevice/TxQueue/Enqueue ns3::EthernetHeader ( length/type=0x800, source=00:00:00:00:00:22, destination=00:00:00:00:00:26) ns3::Ipv4Header (tos 0x0 DSCP Default ECN Not-ECT ttl 64 id 2 protocol 17 offset (bytes) 0 flags [none] length: 60 10.1.1.2 > 10.1.1.6) ns3::UdpHeader (length: 40 49153 > 2) Payload (size=32) ns3::EthernetTrailer (fcs=0)
- 0.0625 /NodeList/1/DeviceList/0/$ns3::CsmaNetDevice/TxQueue/Dequeue ns3::EthernetHeader ( length/type=0x800, source=00:00:00:00:00:22, destination=00:00:00:00:00:26) ns3::Ipv4Header (tos 0x0 DSCP Default ECN Not-ECT ttl 64 id 2 protocol 17 offset (bytes) 0 flags [none] length: 60 10.1.1.2 > 10.1.1.6) ns3::UdpHeader (length: 40 49153 > 2) Payload (size=32) ns3::EthernetTrailer (fcs=0)
+ 0.0625 /NodeList/6/DeviceList/0/$ns3::CsmaNetDevice/TxQueue/Enqueue ns3::EthernetHeader ( length/type=0x800, source=00:00:00:00:00:27, destination=00:00:00:00:00:23) ns3::Ipv4Header (tos 0x0 DSCP Default ECN Not-ECT ttl 64 id 2 protocol 17 offset (bytes) 0 flags [none] length: 60 10.1.1.7 > 10.1.1.3) ns3::UdpHeader (length: 40 49153 > 3) Payload (size=32) ns3::EthernetTrailer (fcs=0)
+ 0.0625 /NodeList/7/DeviceList/0/$ns3::CsmaNetDevice/TxQueue/Enqueue ns3::EthernetHeader ( length/type=0x800, source=00:00:00:00:00:28, destination=00:00:00:00:00:24) ns3::Ipv4Header (tos 0x0 DSCP Default ECN Not-ECT ttl 64 id 2 protocol 17 offset (bytes) 0 flags [none] length: 60 10.1.1.8 > 10.1.1.4) ns3::UdpHeader (length: 40 49153 > 4) Payload (size=32) ns3::EthernetTrailer (fcs=0)
- 0.0625 /NodeList/7/DeviceList/0/$ns3::CsmaNetDevice/TxQueue/Dequeue ns3::EthernetHeader ( length/type=0x800, source=00:00:00:00:00:28, destination=00:00:00:00:00:24) ns3::Ipv4Header (tos 0x0 DSCP Default ECN Not-ECT ttl 64 id 2 protocol 17 offset (bytes) 0 flags [none] length: 60 10.1.1.8 > 10.1.1.4) ns3::UdpHeader (length: 40 49153 > 4) Payload (size=32) ns3::EthernetTrailer (fcs=0)
- 0.0627751 /NodeList/0/DeviceList/0/$ns3::CsmaNetDevice/TxQueue/Dequeue ns3::EthernetHeader ( length/type=0x800, source=00:00:00:00:00:21, destination=00:00:00:00:00:25) ns3::Ipv4Header (tos 0x0 DSCP Default ECN Not-ECT ttl 64 id 2 protocol 17 offset (bytes) 0 flags [none] length: 60 10.1.1.1 > 10.1.1.5) ns3::UdpHeader (length: 40 49153 > 1) Payload (size=32) ns3::EthernetTrailer (fcs=0)
+ 0.0646814 /NodeList/4/DeviceList/0/$ns3::CsmaNetDevice/TxQueue/Enqueue ns3::EthernetHeader ( length/type=0x800, source=00:00:00:00:00:25, destination=00:00:00:00:00:21) ns3::Ipv4Header (tos 0x0 DSCP Default ECN Not-ECT ttl 64 id 0 protocol 17 offset (bytes) 0 flags [none] length: 60 10.1.1.5 > 10.1.1.1) ns3::UdpHeader (length: 40 1 > 49153) Payload (size=32) ns3::EthernetTrailer (fcs=0)
- 0.0646814 /NodeList/4/DeviceList/0/$ns3::CsmaNetDevice/TxQueue/Dequeue ns3::EthernetHeader ( length/type=0x800, source=00:00:00:00:00:25, destination=00:00:00:00:00:21) ns3::Ipv4Header (tos 0x0 DSCP Default ECN Not-ECT ttl 64 id 0 protocol 17 offset (bytes) 0 flags [none] length: 60 10.1.1.5 > 10.1.1.1) ns3::UdpHeader (length: 40 1 > 49153) Payload (size=32) ns3::EthernetTrailer (fcs=0)
+ 0.0646814 /NodeList/4/DeviceList/0/$ns3::CsmaNetDevice/TxQueue/Enqueue ns3::EthernetHeader ( length/type=0x800, source=00:00:00:00:00:25, destination=00:00:00:00:00:21) ns3::Ipv4Header (tos 0x0 DSCP Default ECN Not-ECT ttl 64 id 1 protocol 17 offset (bytes) 0 flags [none] length: 60 10.1.1.5 > 10.1.1.1) ns3::UdpHeader (length: 40 1 > 49153) Payload (size=32) ns3::EthernetTrailer (fcs=0)
- 0.0653855 /NodeList/4/DeviceList/0/$ns3::CsmaNetDevice/TxQueue/Dequeue ns3::EthernetHeader ( length/type=0x800, source=00:00:00:00:00:25, destination=00:00:00:00:00:21) ns3::Ipv4Header (tos 0x0 DSCP Default ECN Not-ECT ttl 64 id 1 protocol 17 offset (bytes) 0 flags [none] length: 60 10.1.1.5 > 10.1.1.1) ns3::UdpHeader (length: 40 1 > 49153) Payload (size=32) ns3::EthernetTrailer (fcs=0)
r 0.0672917 /NodeList/0/DeviceList/0/$ns3::CsmaNetDevice/MacRx ns3::EthernetHeader ( length/type=0x800, source=00:00:00:00:00:25, destination=00:00:00:00:00:21) ns3::Ipv4Header (tos 0x0 DSCP Default ECN Not-ECT ttl 64 id 0 protocol 17 offset (bytes) 0 flags [none] length: 60 10.1.1.5 > 10.1.1.1) ns3::UdpHeader (length: 40 1 > 49153) Payload (size=32) ns3::EthernetTrailer (fcs=0)
r 0.0700334 /NodeList/3/DeviceList/0/$ns3::CsmaNetDevice/MacRx ns3::EthernetHeader ( length/type=0x800, source=00:00:00:00:00:28, destination=00:00:00:00:00:24) ns3::Ipv4Header (tos 0x0 DSCP Default ECN Not-ECT ttl 64 id 2 protocol 17 offset (bytes) 0 flags [none] length: 60 10.1.1.8 > 10.1.1.4) ns3::UdpHeader (length: 40 49153 > 4) Payload (size=32) ns3::EthernetTrailer (fcs=0)
+ 0.0700334 /NodeList/3/DeviceList/0/$ns3::CsmaNetDevice/TxQueue/Enqueue ns3::EthernetHeader ( length/type=0x800, source=00:00:00:00:00:24, destination=00:00:00:00:00:28) ns3::Ipv4Header (tos 0x0 DSCP Default ECN Not-ECT ttl 64 id 2 protocol 17 offset (bytes) 0 flags [none] length: 60 10.1.1.4 > 10.1.1.8) ns3::UdpHeader (length: 40 4 > 49153) Payload (size=32) ns3::EthernetTrailer (fcs=0)
- 0.0700334 /NodeList/3/DeviceList/0/$ns3::CsmaNetDevice/TxQueue/Dequeue ns3::EthernetHeader ( length/type=0x800, source=00:00:00:00:00:24, destination=00:00:00:00:00:28) ns3::Ipv4Header (tos 0x0 DSCP Default ECN Not-ECT ttl 64 id 2 protocol 17 offset (bytes) 0 flags [none] length: 60 10.1.1.4 > 10.1.1.8) ns3::UdpHeader (length: 40 4 > 49153) Payload (size=32) ns3::EthernetTrailer (fcs=0)
r 0.0726427 /NodeList/7/DeviceList/0/$ns3::CsmaNetDevice/MacRx ns3::EthernetHeader ( length/type=0x800, source=00:00:00:00:00:24, destination=00:00:00:00:00:28) ns3::Ipv4Header (tos 0x0 DSCP Default ECN Not-ECT ttl 64 id 2 protocol 17 offset (bytes) 0 flags [none] length: 60 10.1.1.4 > 10.1.1.8) ns3::UdpHeader (length: 40 4 > 49153) Payload (size=32) ns3::EthernetTrailer (fcs=0)
r 0.0753584 /NodeList/5/DeviceList/0/$ns3::CsmaNetDevice/MacRx ns3::EthernetHeader ( length/type=0x800, source=00:00:00:00:00:22, destination=00:00:00:00:00:26) ns3::Ipv4Header (tos 0x0 DSCP Default ECN Not-ECT ttl 64 id 2 protocol 17 offset (bytes) 0 flags [none] length: 60 10.1.1.2 > 10.1.1.6) ns3::UdpHeader (length: 40 49153 > 2) Payload (size=32) ns3::EthernetTrailer (fcs=0)
+ 0.0753584 /NodeList/5/DeviceList/0/$ns3::CsmaNetDevice/TxQueue/Enqueue ns3::EthernetHeader ( length/type=0x800, source=00:00:00:00:00:26, destination=00:00:00:00:00:22) ns3::Ipv4Header (tos 0x0 DSCP Default ECN Not-ECT ttl 64 id 2 protocol 17 offset (bytes) 0 flags [none] length: 60 10.1.1.6 > 10.1.1.2) ns3::UdpHeader (length: 40 2 > 49153) Payload (size=32) ns3::EthernetTrailer (fcs=0)
- 0.0753584 /NodeList/5/DeviceList/0/$ns3::CsmaNetDevice/TxQueue/Dequeue ns3::EthernetHeader ( length/type=0x800, source=00:00:00:00:00:26, destination=00:00:00:00:00:22) ns3::Ipv4Header (tos 0x0 DSCP Default ECN Not-ECT ttl 64 id 2 protocol 17 offset (bytes) 0 flags [none] length: 60 10.1.1.6 > 10.1.1.2) ns3::UdpHeader (length: 40 2 > 49153) Payload (size=32) ns3::EthernetTrailer (fcs=0)
r 0.0779677 /NodeList/1/DeviceList/0/$ns3::CsmaNetDevice/MacRx ns3::EthernetHeader ( length/type=0x800, source=00:00:00:00:00:26, destination=00:00:00:00:00:22) ns3::Ipv4Header (tos 0x0 DSCP Default ECN Not-ECT ttl 64 id 2 protocol 17 offset (bytes) 0 flags [none] length: 60 10.1.1.6 > 10.1.1.2) ns3::UdpHeader (length: 40 2 > 49153) Payload (size=32) ns3::EthernetTrailer (fcs=0)
- 0.0788812 /NodeList/6/DeviceList/0/$ns3::CsmaNetDevice/TxQueue/Dequeue ns3::EthernetHeader ( length/type=0x800, source=00:00:00:00:00:27, destination=00:00:00:00:00:23) ns3::Ipv4Header (tos 0x0 DSCP Default ECN Not-ECT ttl 64 id 2 protocol 17 offset (bytes) 0 flags [none] length: 60 10.1.1.7 > 10.1.1.3) ns3::UdpHeader (length: 40 49153 > 3) Payload (size=32) ns3::EthernetTrailer (fcs=0)
r 0.0807875 /NodeList/2/DeviceList/0/$ns3::CsmaNetDevice/MacRx ns3::EthernetHeader ( length/type=0x800, source=00:00:00:00:00:27, destination=00:00:00:00:00:23) ns3::Ipv4Header (tos 0x0 DSCP Default ECN Not-ECT ttl 64 id 1 protocol 17 offset (bytes) 0 flags [none] length: 60 10.1.1.7 > 10.1.1.3) ns3::UdpHeader (length: 40 49153 > 3) Payload (size=32) ns3::EthernetTrailer (fcs=0)
r 0.0860119 /NodeList/0/DeviceList/0/$ns3::CsmaNetDevice/MacRx ns3::EthernetHeader ( length/type=0x800, source=00:00:00:00:00:25, destination=00:00:00:00:00:21) ns3::Ipv4Header (tos 0x0 DSCP Default ECN Not-ECT ttl 64 id 1 protocol 17 offset (bytes) 0 flags [none] length: 60 10.1.1.5 > 10.1.1.1) ns3::UdpHeader (length: 40 1 > 49153) Payload (size=32) ns3::EthernetTrailer (fcs=0)
r 0.0887656 /NodeList/2/DeviceList/0/$ns3::CsmaNetDevice/MacRx ns3::EthernetHeader ( length/type=0x800, source=00:00:00:00:00:27, destination=00:00:00:00:00:23) ns3::Ipv4Header (tos 0x0 DSCP Default ECN Not-ECT ttl 64 id 2 protocol 17 offset (bytes) 0 flags [none] length: 60 10.1.1.7 > 10.1.1.3) ns3::UdpHeader (length: 40 49153 > 3) Payload (size=32) ns3::EthernetTrailer (fcs=0)
+ 0.0916584 /NodeList/2/DeviceList/0/$ns3::CsmaNetDevice/TxQueue/Enqueue ns3::EthernetHeader ( length/type=0x800, source=00:00:00:00:00:23, destination=00:00:00:00:00:27) ns3::Ipv4Header (tos 0x0 DSCP Default ECN Not-ECT ttl 64 id 0 protocol 17 offset (bytes) 0 flags [none] length: 60 10.1.1.3 > 10.1.1.7) ns3::UdpHeader (length: 40 3 > 49153) Payload (size=32) ns3::EthernetTrailer (fcs=0)
- 0.0916584 /NodeList/2/DeviceList/0/$ns3::CsmaNetDevice/TxQueue/Dequeue ns3::EthernetHeader ( length/type=0x800, source=00:00:00:00:00:23, destination=00:00:00:00:00:27) ns3::Ipv4Header (tos 0x0 DSCP Default ECN Not-ECT ttl 64 id 0 protocol 17 offset (bytes) 0 flags [none] length: 60 10.1.1.3 > 10.1.1.7) ns3::UdpHeader (length: 40 3 > 49153) Payload (size=32) ns3::EthernetTrailer (fcs=0)
+ 0.0916584 /NodeList/2/DeviceList/0/$ns3::CsmaNetDevice/TxQueue/Enqueue ns3::EthernetHeader ( length/type=0x800, source=00:00:00:00:00:23, destination=00:00:00:00:00:27) ns3::Ipv4Header (tos 0x0 DSCP Default ECN Not-ECT ttl 64 id 1 protocol 17 offset (bytes) 0 flags [none] length: 60 10.1.1.3 > 10.1.1.7) ns3::UdpHeader (length: 40 3 > 49153) Payload (size=32) ns3::EthernetTrailer (fcs=0)
+ 0.0916584 /NodeList/2/DeviceList/0/$ns3::CsmaNetDevice/TxQueue/Enqueue ns3::EthernetHeader ( length/type=0x800, source=00:00:00:00:00:23, destination=00:00:00:00:00:27) ns3::Ipv4Header (tos 0x0 DSCP Default ECN Not-ECT ttl 64 id 2 protocol 17 offset (bytes) 0 flags [none] length: 60 10.1.1.3 > 10.1.1.7) ns3::UdpHeader (length: 40 3 > 49153) Payload (size=32) ns3::EthernetTrailer (fcs=0)
- 0.0923625 /NodeList/2/DeviceList/0/$ns3::CsmaNetDevice/TxQueue/Dequeue ns3::EthernetHeader ( length/type=0x800, source=00:00:00:00:00:23, destination=00:00:00:00:00:27) ns3::Ipv4Header (tos 0x0 DSCP Default ECN Not-ECT ttl 64 id 1 protocol 17 offset (bytes) 0 flags [none] length: 60 10.1.1.3 > 10.1.1.7) ns3::UdpHeader (length: 40 3 > 49153) Payload (size=32) ns3::EthernetTrailer (fcs=0)
+ 0.09375 /NodeList/0/DeviceList/0/$ns3::CsmaNetDevice/TxQueue/Enqueue ns3::EthernetHeader ( length/type=0x800, source=00:00:00:00:00:21, destination=00:00:00:00:00:25) ns3::Ipv4Header (tos 0x0 DSCP Default ECN Not-ECT ttl 64 id 3 protocol 17 offset (bytes) 0 flags [none] length: 60 10.1.1.1 > 10.1.1.5) ns3::UdpHeader (length: 40 49153 > 1) Payload (size=32) ns3::EthernetTrailer (fcs=0)
+ 0.09375 /NodeList/1/DeviceList/0/$ns3::CsmaNetDevice/TxQueue/Enqueue ns3::EthernetHeader ( length/type=0x800, source=00:00:00:00:00:22, destination=00:00:00:00:00:26) ns3::Ipv4Header (tos 0x0 DSCP Default ECN Not-ECT ttl 64 id 3 protocol 17 offset (bytes) 0 flags [none] length: 60 10.1.1.2 > 10.1.1.6) ns3::UdpHeader (length: 40 49153 > 2) Payload (size=32) ns3::EthernetTrailer (fcs=0)
- 0.09375 /NodeList/1/DeviceList/0/$ns3::CsmaNetDevice/TxQueue/Dequeue ns3::EthernetHeader ( length/type=0x800, source=00:00:00:00:00:22, destination=00:00:00:00:00:26) ns3::Ipv4Header (tos 0x0 DSCP Default ECN Not-ECT ttl 64 id 3 protocol 17 offset (bytes) 0 flags [none] length: 60 10.1.1.2 > 10.1.1.6) ns3::UdpHeader (length: 40 49153 > 2) Payload (size=32) ns3::EthernetTrailer (fcs=0)
+ 0.09375 /NodeList/6/DeviceList/0/$ns3::CsmaNetDevice/TxQueue/Enqueue ns3::EthernetHeader ( length/type=0x800, source=00:00:00:00:00:27, destination=00:00:00:00:00:23) ns3::Ipv4Header (tos 0x0 DSCP Default ECN Not-ECT ttl 64 id 3 protocol 17 offset (bytes) 0 flags [none] length: 60 10.1.1.7 > 10.1.1.3) ns3::UdpHeader (length: 40 49153 > 3) Payload (size=32) ns3::EthernetTrailer (fcs=0)
- 0.09375 /NodeList/6/DeviceList/0/$ns3::CsmaNetDevice/TxQueue/Dequeue ns3::EthernetHeader ( length/type=0x800, source=00:00:00:00:00:27, destination=00:00:00:00:00:23) ns3::Ipv4Header (tos 0x0 DSCP Default ECN Not-ECT ttl 64 id 3 protocol 17 offset (bytes) 0 flags [none] length: 60 10.1.1.7 > 10.1.1.3) ns3::UdpHeader (length: 40 49153 > 3) Payload (size=32) ns3::EthernetTrailer (fcs=0)
+ 0.09375 /NodeList/7/DeviceList/0/$ns3::CsmaNetDevice/TxQueue/Enqueue ns3::EthernetHeader ( length/type=0x800, source=00:00:00:00:00:28, destination=00:00:00:00:00:24) ns3::Ipv4Header (tos 0x0 DSCP Default ECN Not-ECT ttl 64 id 3 protocol 17 offset (bytes) 0 flags [none] length: 60 10.1.1.8 > 10.1.1.4) ns3::UdpHeader (length: 40 49153 > 4) Payload (size=32) ns3::EthernetTrailer (fcs=0)
- 0.09375 /NodeList/7/DeviceList/0/$ns3::CsmaNetDevice/TxQueue/Dequeue ns3::EthernetHeader ( length/type=0x800, source=00:00:00:00:00:28, destination=00:00:00:00:00:24) ns3::Ipv4Header (tos 0x0 DSCP Default ECN Not-ECT ttl 64 id 3 protocol 17 offset (bytes) 0 flags [none] length: 60 10.1.1.8 > 10.1.1.4) ns3::UdpHeader (length: 40 49153 > 4) Payload (size=32) ns3::EthernetTrailer (fcs=0)
r 0.0942687 /NodeList/6/DeviceList/0/$ns3::CsmaNetDevice/MacRx ns3::EthernetHeader ( length/type=0x800, source=00:00:00:00:00:23, destination=00:00:00:00:00:27) ns3::Ipv4Header (tos 0x0 DSCP Default ECN Not-ECT ttl 64 id 0 protocol 17 offset (bytes) 0 flags [none] length: 60 10.1.1.3 > 10.1.1.7) ns3::UdpHeader (length: 40 3 > 49153) Payload (size=32) ns3::EthernetTrailer (fcs=0)
- 0.0951162 /NodeList/0/DeviceList/0/$ns3::CsmaNetDevice/TxQueue/Dequeue ns3::EthernetHeader ( length/type=0x800, source=00:00:00:00:00:21, destination=00:00:00:00:00:25) ns3::Ipv4Header (tos 0x0 DSCP Default ECN Not-ECT ttl 64 id 3 protocol 17 offset (bytes) 0 flags [none] length: 60 10.1.1.1 > 10.1.1.5) ns3::UdpHeader (length: 40 49153 > 1) Payload (size=32) ns3::EthernetTrailer (fcs=0)
r 0.0970225 /NodeList/4/DeviceList/0/$ns3::CsmaNetDevice/MacRx ns3::EthernetHeader ( length/type=0x800, source=00:00:00:00:00:21, destination=00:00:00:00:00:25) ns3::Ipv4Header (tos 0x0 DSCP Default ECN Not-ECT ttl 64 id 2 protocol 17 offset (bytes) 0 flags [none] length: 60 10.1.1.1 > 10.1.1.5) ns3::UdpHeader (length: 40 49153 > 1) Payload (size=32) ns3::EthernetTrailer (fcs=0)
+ 0.0970225 /NodeList/4/DeviceList/0/$ns3::CsmaNetDevice/TxQueue/Enqueue ns3::EthernetHeader ( length/type=0x800, source=00:00:00:00:00:25, destination=00:00:00:00:00:21) ns3::Ipv4Header (tos 0x0 DSCP Default ECN Not-ECT ttl 64 id 2 protocol 17 offset (bytes) 0 flags [none] length: 60 10.1.1.5 > 10.1.1.1) ns3::UdpHeader (length: 40 1 > 49153) Payload (size=32) ns3::EthernetTrailer (fcs=0)
- 0.0970225 /NodeList/4/DeviceList/0/$ns3::CsmaNetDevice/TxQueue/Dequeue ns3::EthernetHeader ( length/type=0x800, source=00:00:00:00:00:25, destination=00:00:00:00:00:21) ns3::Ipv4Header (tos 0x0 DSCP Default ECN Not-ECT ttl 64 id 2 protocol 17 offset (bytes) 0 flags [none] length: 60 10.1.1.5 > 10.1.1.1) ns3::UdpHeader (length: 40 1 > 49153) Payload (size=32) ns3::EthernetTrailer (fcs=0)
r 0.0996319 /NodeList/0/DeviceList/0/$ns3::CsmaNetDevice/MacRx ns3::EthernetHeader ( length/type=0x800, source=00:00:00:00:00:25, destination=00:00:00:00:00:21) ns3::Ipv4Header (tos 0x0 DSCP Default ECN Not-ECT ttl 64 id 2 protocol 17 offset (bytes) 0 flags [none] length: 60 10.1.1.5 > 10.1.1.1) ns3::UdpHeader (length: 40 1 > 49153) Payload (size=32) ns3::EthernetTrailer (fcs=0)